 +-------------------------------------------------+
 |                                                 |
 |      CCC   AA    SSS  TTTTT  EEEEE  PPPP        |
 |     C     A  A  S       T    E      P   P       |
 |     C     AAAA   SS     T    EEE    PPPP        |
 |     C     A  A     S    T    E      P           |
 |      CCC  A  A  SSS     T    EEEEE  P           |
 |                                                 |
 +-------------------------------------------------+
 |                                                 |
 | Welcome to Academic Release CASTEP version 7.03 |
 | Ab Initio Total Energy Program                  |
 |                                                 |
 | Authors:                                        |
 | M. Segall, M. Probert, C. Pickard, P. Hasnip,   |
 | S. Clark, K. Refson, J. R. Yates, M. Payne      |
 |                                                 |
 | Contributors:                                   |
 | P. Lindan, P. Haynes, J. White, V. Milman,      |
 | N. Govind, M. Gibson, P. Tulip, V. Cocula,      |
 | B. Montanari, D. Quigley, M. Glover,            |
 | L. Bernasconi, A. Perlov, M. Plummer,           |
 | E. McNellis, J. Meyer, J. Gale, D. Jochym       |
 | J. Aarons, B. Walker, R. Gillen, D. Jones       |
 |                                                 |
 | Copyright (c) 2000 - 2013                       |
 |                                                 |
 |     Distributed under the terms of an           |
 |     Agreement between the United Kingdom        |
 |     Car-Parrinello (UKCP) Consortium,           |
 |     Daresbury Laboratory and Accelrys, Inc.     |
 |                                                 |
 | Please cite                                     |
 |                                                 |
 |     "First principles methods using CASTEP"     |
 |                                                 |
 |         Zeitschrift fuer Kristallographie       |
 |           220(5-6) pp. 567-570 (2005)           |
 |                                                 |
 | S. J. Clark, M. D. Segall, C. J. Pickard,       |
 | P. J. Hasnip, M. J. Probert, K. Refson,         |
 | M. C. Payne                                     |
 |                                                 |
 |       in all publications arising from          |
 |              your use of CASTEP                 |
 |                                                 |
 +-------------------------------------------------+
 
 
 Compiled for linux_x86_64_ifort14 on Fri, 04 Jul 2014 16:20:16 +0100
 from code version 824badb45ac0+ Castep70_branch Thu, 05 Jun 2014 11:49:23 +0100
 Compiler: Intel Fortran 14.0.1.106; Optimisation: fast
 MATHLIBS: Intel MKL(11.0.0) (LAPACK version 3.4.1)
 FFT Lib : mkl
 
 Run started: Fri, 08 Sep 2017 11:41:44 +0100
 
 Pseudo atomic calculation performed for O 2s2 2p4
 
 Converged in 54 iterations to a total energy of -428.1613 eV
 
 
 Pseudo atomic calculation performed for Ca 3s2 3p6 4s2
 
 Converged in 40 iterations to a total energy of -1004.5698 eV
 
 
 Pseudo atomic calculation performed for Ge 3d10 4s2 4p2
 
 Converged in 76 iterations to a total energy of -2408.4775 eV
 
 
 Pseudo atomic calculation performed for Sr 4s2 4p6 5s2
 
 Converged in 44 iterations to a total energy of -886.1245 eV
 
 Calculation parallelised over 36 processes.
 Data is distributed by G-vector(6-way) and k-point(6-way)

 ************************************ Title ************************************
 

 ***************************** General Parameters ******************************
  
 output verbosity                               : normal  (1)
 write checkpoint data to                       : Ca1.5Sr0.5GeO4.check
 type of calculation                            : geometry optimization
 stress calculation                             : on
 density difference calculation                 : off
 electron localisation func (ELF) calculation   : off
 Hirshfeld analysis                             : off
 calculation limited to maximum                 :     240000   seconds
 timing information                             : on
 memory usage estimate                          : on
 write final potential to formatted file        : off
 write final density to formatted file          : off
 write structure in CELL formatted file         : on
 write BibTeX reference list                    : on
  
 output         length unit                     : A
 output           mass unit                     : amu
 output           time unit                     : ps
 output         charge unit                     : e
 output         energy unit                     : eV
 output          force unit                     : eV/A
 output       velocity unit                     : A/ps
 output       pressure unit                     : GPa
 output     inv_length unit                     : 1/A
 output      frequency unit                     : cm-1
 output force constant unit                     : eV/A**2
 output         volume unit                     : A**3
 output   IR intensity unit                     : (D/A)**2/amu
 output         dipole unit                     : D
 output         efield unit                     : eV/A/e
 output        entropy unit                     : J/mol/K
  
 wavefunctions paging                           : none
 random number generator seed                   : randomised (114146005)
 data distribution                              : optimal for this architecture
 optimization strategy                          : maximize speed(+++)

 *********************** Exchange-Correlation Parameters ***********************
  
 using functional                               : PBE for solids (2008)
 Divergence correction                          : off
 DFT+D: Semi-empirical dispersion correction    : off

 ************************* Pseudopotential Parameters **************************
  
 pseudopotential representation                 : reciprocal space
 <beta|phi> representation                      : reciprocal space

 **************************** Basis Set Parameters *****************************
  
 plane wave basis set cut-off                   :  1400.0000   eV
 size of standard grid                          :     2.0000
 size of   fine   grid                          :     3.0000
 size of   fine   gmax                          :    57.5074   1/A
 largest prime factor in FFT                    :          5
 finite basis set correction                    : automatic
 number of sample energies                      :          3
           sample  spacing                      :     5.0000   eV

 **************************** Electronic Parameters ****************************
  
 number of  electrons                           :  464.0    
 net charge of system                           :  0.000    
 net spin   of system                           :  0.000    
 number of  up  spins                           :  232.0    
 number of down spins                           :  232.0    
 treating system as non-spin-polarized
 number of bands                                :        232

 ********************* Electronic Minimization Parameters **********************
  
 Method: Treating system as non-metallic,
         and number of  SD  steps               :          1
         and number of  CG  steps               :          4
  
 total energy / atom convergence tol.           : 0.1000E-11   eV
 max force / atom convergence tol.              : ignored
 convergence tolerance window                   :          3   cycles
 max. number of SCF cycles                      :         60
 periodic dipole correction                     : NONE

 *********************** Population Analysis Parameters ************************
  
 Population analysis with cutoff                :  3.000       A

 ********************** Geometry Optimization Parameters ***********************
  
 optimization method                            : BFGS
 variable cell method                           : fixed basis quality
 max. number of steps                           :        300
 estimated bulk modulus                         :  500.0       GPa
 estimated <frequency>                          :  1668.       cm-1
 geom line minimiser                            : on
 with line minimiser tolerance                  :     0.4000
 total energy convergence tolerance             : 0.2000E-04   eV/atom
        max ionic |force| tolerance             : 0.1000E-03   eV/A
 max ionic |displacement| tolerance             : 0.1000E-02   A
   max |stress component| tolerance             : 0.1000E-01   GPa
 convergence tolerance window                   :          2   steps
 backup results every                           :      80000   seconds

 *******************************************************************************
  
 
                           -------------------------------
                                      Unit Cell
                           -------------------------------
        Real Lattice(A)                      Reciprocal Lattice(1/A)
   5.3017802   0.0000000   0.0000000        1.1851086   0.0000000   0.0000000
   0.0000000   5.3017802   0.0000000        0.0000000   1.1851086   0.0000000
   0.0000000   0.0000000  23.2920399        0.0000000   0.0000000   0.2697568
 
                       Lattice parameters(A)       Cell Angles
                    a =    5.301780          alpha =   90.000000
                    b =    5.301780          beta  =   90.000000
                    c =   23.292040          gamma =   90.000000
 
                       Current cell volume =  654.713003       A**3
 
                           -------------------------------
                                     Cell Contents
                           -------------------------------
                         Total number of ions in cell =   72
                      Total number of species in cell =    4
                        Max number of any one species =   32
 
            xxxxxxxxxxxxxxxxxxxxxxxxxxxxxxxxxxxxxxxxxxxxxxxxxxxxxxxxxxxx
            x  Element    Atom        Fractional coordinates of atoms  x
            x            Number           u          v          w      x
            x----------------------------------------------------------x
            x  O            1         0.731140   0.231140   0.000000   x 
            x  O            2         0.268860   0.768860   0.000000   x 
            x  O            3         0.231140   0.268860   0.000000   x 
            x  O            4         0.768860   0.731140   0.000000   x 
            x  O            5         0.731140   0.768860   0.500000   x 
            x  O            6         0.268860   0.231140   0.500000   x 
            x  O            7         0.231140   0.731140   0.500000   x 
            x  O            8         0.768860   0.268860   0.500000   x 
            x  O            9        -0.000000   0.500000   0.331340   x 
            x  O           10         0.500000  -0.000000   0.668660   x 
            x  O           11        -0.000000   0.500000   0.831340   x 
            x  O           12         0.500000  -0.000000   0.168660   x 
            x  O           13         0.500000  -0.000000   0.831340   x 
            x  O           14        -0.000000   0.500000   0.168660   x 
            x  O           15         0.500000  -0.000000   0.331340   x 
            x  O           16        -0.000000   0.500000   0.668660   x 
            x  O           17        -0.000000  -0.000000   0.581340   x 
            x  O           18        -0.000000  -0.000000   0.418660   x 
            x  O           19        -0.000000  -0.000000   0.081340   x 
            x  O           20        -0.000000  -0.000000   0.918660   x 
            x  O           21         0.500000   0.500000   0.081340   x 
            x  O           22         0.500000   0.500000   0.918660   x 
            x  O           23         0.500000   0.500000   0.581340   x 
            x  O           24         0.500000   0.500000   0.418660   x 
            x  O           25         0.767940   0.767940   0.250000   x 
            x  O           26         0.232060   0.232060   0.250000   x 
            x  O           27         0.767940   0.232060   0.750000   x 
            x  O           28         0.232060   0.767940   0.750000   x 
            x  O           29         0.267940   0.267940   0.750000   x 
            x  O           30         0.732060   0.732060   0.750000   x 
            x  O           31         0.267940   0.732060   0.250000   x 
            x  O           32         0.732060   0.267940   0.250000   x 
            x  Ca           1        -0.000000   0.500000   0.072770   x 
            x  Ca           2         0.500000  -0.000000   0.927230   x 
            x  Ca           3        -0.000000   0.500000   0.572770   x 
            x  Ca           4         0.500000  -0.000000   0.427230   x 
            x  Ca           5         0.500000  -0.000000   0.572770   x 
            x  Ca           6        -0.000000   0.500000   0.427230   x 
            x  Ca           7         0.500000  -0.000000   0.072770   x 
            x  Ca           8        -0.000000   0.500000   0.927230   x 
            x  Ca           9        -0.000000  -0.000000   0.677230   x 
            x  Ca          10        -0.000000  -0.000000   0.322770   x 
            x  Ca          11        -0.000000  -0.000000   0.177230   x 
            x  Ca          12        -0.000000  -0.000000   0.822770   x 
            x  Ca          13         0.500000   0.500000   0.177230   x 
            x  Ca          14         0.500000   0.500000   0.822770   x 
            x  Ca          15         0.500000   0.500000   0.677230   x 
            x  Ca          16         0.500000   0.500000   0.322770   x 
            x  Ge           1        -0.000000  -0.000000   0.000000   x 
            x  Ge           2        -0.000000  -0.000000   0.500000   x 
            x  Ge           3         0.500000   0.500000   0.500000   x 
            x  Ge           4         0.500000   0.500000   0.000000   x 
            x  Ge           5        -0.000000   0.500000   0.250000   x 
            x  Ge           6         0.500000  -0.000000   0.750000   x 
            x  Ge           7        -0.000000   0.500000   0.750000   x 
            x  Ge           8         0.500000  -0.000000   0.250000   x 
            x  Sr           1        -0.000000   0.500000   0.072770   x 
            x  Sr           2         0.500000  -0.000000   0.927230   x 
            x  Sr           3        -0.000000   0.500000   0.572770   x 
            x  Sr           4         0.500000  -0.000000   0.427230   x 
            x  Sr           5         0.500000  -0.000000   0.572770   x 
            x  Sr           6        -0.000000   0.500000   0.427230   x 
            x  Sr           7         0.500000  -0.000000   0.072770   x 
            x  Sr           8        -0.000000   0.500000   0.927230   x 
            x  Sr           9        -0.000000  -0.000000   0.677230   x 
            x  Sr          10        -0.000000  -0.000000   0.322770   x 
            x  Sr          11        -0.000000  -0.000000   0.177230   x 
            x  Sr          12        -0.000000  -0.000000   0.822770   x 
            x  Sr          13         0.500000   0.500000   0.177230   x 
            x  Sr          14         0.500000   0.500000   0.822770   x 
            x  Sr          15         0.500000   0.500000   0.677230   x 
            x  Sr          16         0.500000   0.500000   0.322770   x 
            xxxxxxxxxxxxxxxxxxxxxxxxxxxxxxxxxxxxxxxxxxxxxxxxxxxxxxxxxxxx
 
  
        xxxxxxxxxxxxxxxxxxxxxxxxxxxxxxxxxxxxxxxxxxxxxxxxxxxxxxxxxxxxxxxxxxxx
        x  Mixture   Fractional coordinates of atoms  Components  Weights  x
        x   atoms       u          v          w                            x
        x------------------------------------------------------------------x
        x    1       -0.000000   0.500000   0.072770   Ca        0.750000  x
        x                                              Sr        0.250000  x
        x    2        0.500000  -0.000000   0.927230   Ca        0.750000  x
        x                                              Sr        0.250000  x
        x    3       -0.000000   0.500000   0.572770   Ca        0.750000  x
        x                                              Sr        0.250000  x
        x    4        0.500000  -0.000000   0.427230   Ca        0.750000  x
        x                                              Sr        0.250000  x
        x    5        0.500000  -0.000000   0.572770   Ca        0.750000  x
        x                                              Sr        0.250000  x
        x    6       -0.000000   0.500000   0.427230   Ca        0.750000  x
        x                                              Sr        0.250000  x
        x    7        0.500000  -0.000000   0.072770   Ca        0.750000  x
        x                                              Sr        0.250000  x
        x    8       -0.000000   0.500000   0.927230   Ca        0.750000  x
        x                                              Sr        0.250000  x
        x    9       -0.000000  -0.000000   0.677230   Ca        0.750000  x
        x                                              Sr        0.250000  x
        x   10       -0.000000  -0.000000   0.322770   Ca        0.750000  x
        x                                              Sr        0.250000  x
        x   11       -0.000000  -0.000000   0.177230   Ca        0.750000  x
        x                                              Sr        0.250000  x
        x   12       -0.000000  -0.000000   0.822770   Ca        0.750000  x
        x                                              Sr        0.250000  x
        x   13        0.500000   0.500000   0.177230   Ca        0.750000  x
        x                                              Sr        0.250000  x
        x   14        0.500000   0.500000   0.822770   Ca        0.750000  x
        x                                              Sr        0.250000  x
        x   15        0.500000   0.500000   0.677230   Ca        0.750000  x
        x                                              Sr        0.250000  x
        x   16        0.500000   0.500000   0.322770   Ca        0.750000  x
        x                                              Sr        0.250000  x
        xxxxxxxxxxxxxxxxxxxxxxxxxxxxxxxxxxxxxxxxxxxxxxxxxxxxxxxxxxxxxxxxxxxx
 
 
 
                         No user defined ionic velocities
 
                           -------------------------------
                                   Details of Species
                           -------------------------------
 
                               Mass of species in AMU
                                    O   15.9994000
                                    Ca   40.0780000
                                    Ge   72.6100000
                                    Sr   87.6200000
 
                          Electric Quadrupole Moment (Barn)
                                    O   -0.0255800 Isotope 17
                                    Ca   -0.0408000 Isotope 43
                                    Ge   -0.1730000 Isotope 73
                                    Sr    0.3050000 Isotope 87
 
                          Files used for pseudopotentials:
                                    O O_OTF_E1650_PBEsol_NC.usp
                                    Ca Ca_OTF_E1650_PBEsol_NC.usp
                                    Ge Ge_OTF_E1650_PBEsol_NC.usp
                                    Sr Sr_OTF_E1650_PBEsol_NC.usp
 
                           -------------------------------
                              k-Points For BZ Sampling
                           -------------------------------
                       MP grid size for SCF calculation is  5  5  1
                         Number of kpoints used =           6
 
             +++++++++++++++++++++++++++++++++++++++++++++++++++++++
             +  Number       Fractional coordinates        Weight  +
             +-----------------------------------------------------+
             +     1  -0.300000  -0.300000  -0.500000   0.1600000  +
             +     2  -0.300000  -0.100000  -0.500000   0.3200000  +
             +     3  -0.300000  -0.500000  -0.500000   0.1600000  +
             +     4  -0.100000   0.100000  -0.500000   0.1600000  +
             +     5  -0.500000  -0.100000  -0.500000   0.1600000  +
             +     6  -0.500000  -0.500000  -0.500000   0.0400000  +
             +++++++++++++++++++++++++++++++++++++++++++++++++++++++
 
                           -------------------------------
                               Symmetry and Constraints
                           -------------------------------
 
                      Cell is a supercell containing 2 primitive cells
                      Maximum deviation from symmetry = 0.581836E-14     ANG
 
                      Number of symmetry operations   =          16
                      Number of ionic constraints     =           3
                      Point group of crystal =    13: D2d, -42m, -4 2 m
 
             Set iprint > 1 for details on symmetry rotations/translations
 
                         Centre of mass is constrained
             Set iprint > 1 for details of linear ionic constraints
 
                         Number of cell constraints= 4
                         Cell constraints are:  1 1 3 0 0 0
 
                         External pressure/stress (GPa)
                          4.30000   0.00000   0.00000
                                    4.30000   0.00000
                                              0.00000
  
+---------------- MEMORY AND SCRATCH DISK ESTIMATES PER PROCESS --------------+
|                                                     Memory          Disk    |
| Model and support data                              385.7 MB         0.0 MB |
| Electronic energy minimisation requirements         323.3 MB         0.0 MB |
|                                               ----------------------------- |
| Approx. total storage required per process          709.0 MB         0.0 MB |
|                                                                             |
| Requirements will fluctuate during execution and may exceed these estimates |
+-----------------------------------------------------------------------------+
Calculating finite basis set correction with  3 cut-off energies.
Calculating total energy with cut-off of 1390.000eV.
------------------------------------------------------------------------ <-- SCF
SCF loop      Energy                           Energy gain       Timer   <-- SCF
                                               per atom          (sec)   <-- SCF
------------------------------------------------------------------------ <-- SCF
Initial  -1.24315270E+004                                         81.92  <-- SCF
      1  -4.26124396E+004                    5.38944868E+002     345.64  <-- SCF
      2  -4.65121847E+004                    6.96383057E+001     622.93  <-- SCF
      3  -4.84880603E+004                    3.52834922E+001     869.73  <-- SCF
      4  -4.87398831E+004                    4.49683559E+000    1115.82  <-- SCF
      5  -4.87874879E+004                    8.50085259E-001    1361.44  <-- SCF
      6  -4.88010037E+004                    2.41353931E-001    1623.92  <-- SCF
      7  -4.88031236E+004                    3.78549239E-002    1874.99  <-- SCF
      8  -4.88032180E+004                    1.68553165E-003    2126.02  <-- SCF
      9  -4.88032240E+004                    1.07247000E-004    2376.64  <-- SCF
     10  -4.88032243E+004                    5.35482330E-006    2626.76  <-- SCF
     11  -4.88032243E+004                    4.19782389E-007    2877.00  <-- SCF
     12  -4.88032243E+004                    2.49341142E-008    3126.87  <-- SCF
     13  -4.88032243E+004                    2.08882689E-009    3382.09  <-- SCF
     14  -4.88032243E+004                    1.29046324E-010    3654.23  <-- SCF
     15  -4.88032243E+004                    2.13235793E-011    3945.39  <-- SCF
     16  -4.88032243E+004                    4.41939467E-013    4369.18  <-- SCF
     17  -4.88032243E+004                    4.41939467E-013    4849.78  <-- SCF
------------------------------------------------------------------------ <-- SCF
 
Final energy =  -48803.22429830     eV
(energy not corrected for finite basis set)
 
Calculating total energy with cut-off of 1395.000eV.
------------------------------------------------------------------------ <-- SCF
SCF loop      Energy                           Energy gain       Timer   <-- SCF
                                               per atom          (sec)   <-- SCF
------------------------------------------------------------------------ <-- SCF
Initial  -4.88032243E+004                                       4958.16  <-- SCF
      1  -4.88032260E+004                    3.01288402E-005    5202.59  <-- SCF
      2  -4.88032260E+004                    3.53551573E-012    5593.48  <-- SCF
      3  -4.88032260E+004                    0.00000000E+000    6020.51  <-- SCF
      4  -4.88032260E+004                    0.00000000E+000    6447.00  <-- SCF
------------------------------------------------------------------------ <-- SCF
 
Final energy =  -48803.22598551     eV
(energy not corrected for finite basis set)
 
Calculating total energy with cut-off of 1400.000eV.
------------------------------------------------------------------------ <-- SCF
SCF loop      Energy                           Energy gain       Timer   <-- SCF
                                               per atom          (sec)   <-- SCF
------------------------------------------------------------------------ <-- SCF
Initial  -4.88032260E+004                                       6547.18  <-- SCF
      1  -4.88032276E+004                    2.88630768E-005    6820.80  <-- SCF
      2  -4.88032276E+004                    5.41375847E-012    7158.51  <-- SCF
      3  -4.88032276E+004                    6.62909200E-013    7570.59  <-- SCF
      4  -4.88032276E+004                    0.00000000E+000    8007.78  <-- SCF
------------------------------------------------------------------------ <-- SCF
 
Final energy =  -48803.22760184     eV
(energy not corrected for finite basis set)
 
 For future reference: finite basis dEtot/dlog(Ecut) =      -0.458489eV
 Total energy corrected for finite basis set =  -48803.227595 eV
 
+---------------- MEMORY AND SCRATCH DISK ESTIMATES PER PROCESS --------------+
|                                                     Memory          Disk    |
| Model and support data                              385.7 MB         0.0 MB |
| Electronic energy minimisation requirements         323.3 MB         0.0 MB |
| Geometry minimisation requirements                  375.7 MB         0.0 MB |
|                                               ----------------------------- |
| Approx. total storage required per process         1084.7 MB         0.0 MB |
|                                                                             |
| Requirements will fluctuate during execution and may exceed these estimates |
+-----------------------------------------------------------------------------+
 
 
 *********************************** Forces ***********************************
 *                                                                            *
 *                        Cartesian components (eV/A)                         *
 * -------------------------------------------------------------------------- *
 *                   x                    y                    z              *
 *                                                                            *
 * O         1      0.05134              0.05134             -0.00000         *
 * O         2     -0.05134             -0.05134             -0.00000         *
 * O         3      0.05134             -0.05134             -0.00000         *
 * O         4     -0.05134              0.05134             -0.00000         *
 * O         5      0.05134             -0.05134             -0.00000         *
 * O         6     -0.05134              0.05134             -0.00000         *
 * O         7      0.05134              0.05134             -0.00000         *
 * O         8     -0.05134             -0.05134             -0.00000         *
 * O         9      0.00000              0.00000             -0.35835         *
 * O        10      0.00000              0.00000              0.35835         *
 * O        11      0.00000              0.00000             -0.35835         *
 * O        12      0.00000              0.00000              0.35835         *
 * O        13      0.00000              0.00000             -0.35835         *
 * O        14      0.00000              0.00000              0.35835         *
 * O        15      0.00000              0.00000             -0.35835         *
 * O        16      0.00000              0.00000              0.35835         *
 * O        17      0.00000              0.00000             -0.36086         *
 * O        18      0.00000              0.00000              0.36086         *
 * O        19      0.00000              0.00000             -0.36086         *
 * O        20      0.00000              0.00000              0.36086         *
 * O        21      0.00000              0.00000             -0.36086         *
 * O        22      0.00000              0.00000              0.36086         *
 * O        23      0.00000              0.00000             -0.36086         *
 * O        24      0.00000              0.00000              0.36086         *
 * O        25     -0.04554             -0.04554              0.00000         *
 * O        26      0.04554              0.04554              0.00000         *
 * O        27     -0.04554              0.04554             -0.00000         *
 * O        28      0.04554             -0.04554             -0.00000         *
 * O        29     -0.04554             -0.04554              0.00000         *
 * O        30      0.04554              0.04554              0.00000         *
 * O        31     -0.04554              0.04554             -0.00000         *
 * O        32      0.04554             -0.04554             -0.00000         *
 * Ca        1      0.00000 (mixed)      0.00000 (mixed)      0.01552 (mixed) *
 * Ca        2      0.00000 (mixed)      0.00000 (mixed)     -0.01552 (mixed) *
 * Ca        3      0.00000 (mixed)      0.00000 (mixed)      0.01552 (mixed) *
 * Ca        4      0.00000 (mixed)      0.00000 (mixed)     -0.01552 (mixed) *
 * Ca        5      0.00000 (mixed)      0.00000 (mixed)      0.01552 (mixed) *
 * Ca        6      0.00000 (mixed)      0.00000 (mixed)     -0.01552 (mixed) *
 * Ca        7      0.00000 (mixed)      0.00000 (mixed)      0.01552 (mixed) *
 * Ca        8      0.00000 (mixed)      0.00000 (mixed)     -0.01552 (mixed) *
 * Ca        9      0.00000 (mixed)      0.00000 (mixed)     -0.00104 (mixed) *
 * Ca       10      0.00000 (mixed)      0.00000 (mixed)      0.00104 (mixed) *
 * Ca       11      0.00000 (mixed)      0.00000 (mixed)     -0.00104 (mixed) *
 * Ca       12      0.00000 (mixed)      0.00000 (mixed)      0.00104 (mixed) *
 * Ca       13      0.00000 (mixed)      0.00000 (mixed)     -0.00104 (mixed) *
 * Ca       14      0.00000 (mixed)      0.00000 (mixed)      0.00104 (mixed) *
 * Ca       15      0.00000 (mixed)      0.00000 (mixed)     -0.00104 (mixed) *
 * Ca       16      0.00000 (mixed)      0.00000 (mixed)      0.00104 (mixed) *
 * Ge        1      0.00000              0.00000              0.00000         *
 * Ge        2      0.00000              0.00000             -0.00000         *
 * Ge        3      0.00000              0.00000              0.00000         *
 * Ge        4      0.00000              0.00000              0.00000         *
 * Ge        5      0.00000              0.00000              0.00000         *
 * Ge        6      0.00000              0.00000              0.00000         *
 * Ge        7      0.00000              0.00000              0.00000         *
 * Ge        8      0.00000              0.00000             -0.00000         *
 * Sr        1      0.00000 (mixed)      0.00000 (mixed)      0.01552 (mixed) *
 * Sr        2      0.00000 (mixed)      0.00000 (mixed)     -0.01552 (mixed) *
 * Sr        3      0.00000 (mixed)      0.00000 (mixed)      0.01552 (mixed) *
 * Sr        4      0.00000 (mixed)      0.00000 (mixed)     -0.01552 (mixed) *
 * Sr        5      0.00000 (mixed)      0.00000 (mixed)      0.01552 (mixed) *
 * Sr        6      0.00000 (mixed)      0.00000 (mixed)     -0.01552 (mixed) *
 * Sr        7      0.00000 (mixed)      0.00000 (mixed)      0.01552 (mixed) *
 * Sr        8      0.00000 (mixed)      0.00000 (mixed)     -0.01552 (mixed) *
 * Sr        9      0.00000 (mixed)      0.00000 (mixed)     -0.00104 (mixed) *
 * Sr       10      0.00000 (mixed)      0.00000 (mixed)      0.00104 (mixed) *
 * Sr       11      0.00000 (mixed)      0.00000 (mixed)     -0.00104 (mixed) *
 * Sr       12      0.00000 (mixed)      0.00000 (mixed)      0.00104 (mixed) *
 * Sr       13      0.00000 (mixed)      0.00000 (mixed)     -0.00104 (mixed) *
 * Sr       14      0.00000 (mixed)      0.00000 (mixed)      0.00104 (mixed) *
 * Sr       15      0.00000 (mixed)      0.00000 (mixed)     -0.00104 (mixed) *
 * Sr       16      0.00000 (mixed)      0.00000 (mixed)      0.00104 (mixed) *
 *                                                                            *
 ******************************************************************************
 
 ***************** Stress Tensor *****************
 *                                               *
 *          Cartesian components (GPa)           *
 * --------------------------------------------- *
 *             x             y             z     *
 *                                               *
 *  x     -3.293517      0.000000      0.000000  *
 *  y      0.000000     -3.293517      0.000000  *
 *  z      0.000000      0.000000     -6.923110  *
 *                                               *
 *  Pressure:    4.5034                          *
 *                                               *
 *************************************************
 BFGS: finished iteration     0 with enthalpy= -4.87915133E+004 eV
  
 +-----------+-----------------+-----------------+------------+-----+ <-- BFGS
 | Parameter |      value      |    tolerance    |    units   | OK? | <-- BFGS
 +-----------+-----------------+-----------------+------------+-----+ <-- BFGS
 |  dE/ion   |   0.000000E+000 |   2.000000E-005 |         eV | No  | <-- BFGS
 |  |F|max   |   3.608579E-001 |   1.000000E-004 |       eV/A | No  | <-- BFGS
 |  |dR|max  |   0.000000E+000 |   1.000000E-003 |          A | No  | <-- BFGS
 |   Smax    |   6.923110E+000 |   1.000000E-002 |        GPa | No  | <-- BFGS
 +-----------+-----------------+-----------------+------------+-----+ <-- BFGS
  

================================================================================
 Starting BFGS iteration          1 ...
================================================================================
  
 +------------+-------------+-------------+-----------------+ <-- min BFGS
 |    Step    |   lambda    |   F.delta   |    enthalpy     | <-- min BFGS
 +------------+-------------+-------------+-----------------+ <-- min BFGS
 |  previous  |    0.000000 |    0.005226 |   -48791.513256 | <-- min BFGS
 +------------+-------------+-------------+-----------------+ <-- min BFGS
  

--------------------------------------------------------------------------------
 BFGS: starting iteration         1 with trial guess (lambda=  1.000000)
--------------------------------------------------------------------------------
 
+---------------- MEMORY AND SCRATCH DISK ESTIMATES PER PROCESS --------------+
|                                                     Memory          Disk    |
| Model and support data                              386.2 MB         0.0 MB |
| Electronic energy minimisation requirements         324.2 MB         0.0 MB |
| Geometry minimisation requirements                  376.8 MB         0.0 MB |
|                                               ----------------------------- |
| Approx. total storage required per process         1087.2 MB         0.0 MB |
|                                                                             |
| Requirements will fluctuate during execution and may exceed these estimates |
+-----------------------------------------------------------------------------+
 
 
                           -------------------------------
                                      Unit Cell
                           -------------------------------
        Real Lattice(A)              Reciprocal Lattice(1/A)
   5.2982228   0.0000000   0.0000000        1.1859043   0.0000000   0.0000000
   0.0000000   5.2982228   0.0000000        0.0000000   1.1859043   0.0000000
   0.0000000   0.0000000  23.3995421        0.0000000   0.0000000   0.2685174
 
                       Lattice parameters(A)       Cell Angles
                    a =    5.298223          alpha =   90.000000
                    b =    5.298223          beta  =   90.000000
                    c =   23.399542          gamma =   90.000000
 
                Current cell volume =  656.852401 A**3
 
                           -------------------------------
                                     Cell Contents
                           -------------------------------
 
            xxxxxxxxxxxxxxxxxxxxxxxxxxxxxxxxxxxxxxxxxxxxxxxxxxxxxxxxxxxx
            x  Element    Atom        Fractional coordinates of atoms  x
            x            Number           u          v          w      x
            x----------------------------------------------------------x
            x  O            1         0.731168   0.231168   0.000000   x
            x  O            2         0.268832   0.768832   0.000000   x
            x  O            3         0.231168   0.268832   0.000000   x
            x  O            4         0.768832   0.731168   0.000000   x
            x  O            5         0.731168   0.768832   0.500000   x
            x  O            6         0.268832   0.231168   0.500000   x
            x  O            7         0.231168   0.731168   0.500000   x
            x  O            8         0.768832   0.268832   0.500000   x
            x  O            9        -0.000000   0.500000   0.331296   x
            x  O           10         0.500000  -0.000000   0.668704   x
            x  O           11        -0.000000   0.500000   0.831296   x
            x  O           12         0.500000  -0.000000   0.168704   x
            x  O           13         0.500000  -0.000000   0.831296   x
            x  O           14        -0.000000   0.500000   0.168704   x
            x  O           15         0.500000  -0.000000   0.331296   x
            x  O           16        -0.000000   0.500000   0.668704   x
            x  O           17        -0.000000  -0.000000   0.581296   x
            x  O           18        -0.000000  -0.000000   0.418704   x
            x  O           19        -0.000000  -0.000000   0.081296   x
            x  O           20        -0.000000  -0.000000   0.918704   x
            x  O           21         0.500000   0.500000   0.081296   x
            x  O           22         0.500000   0.500000   0.918704   x
            x  O           23         0.500000   0.500000   0.581296   x
            x  O           24         0.500000   0.500000   0.418704   x
            x  O           25         0.767916   0.767916   0.250000   x
            x  O           26         0.232084   0.232084   0.250000   x
            x  O           27         0.767916   0.232084   0.750000   x
            x  O           28         0.232084   0.767916   0.750000   x
            x  O           29         0.267916   0.267916   0.750000   x
            x  O           30         0.732084   0.732084   0.750000   x
            x  O           31         0.267916   0.732084   0.250000   x
            x  O           32         0.732084   0.267916   0.250000   x
            x  Ca           1        -0.000000   0.500000   0.072772   x
            x  Ca           2         0.500000  -0.000000   0.927228   x
            x  Ca           3        -0.000000   0.500000   0.572772   x
            x  Ca           4         0.500000  -0.000000   0.427228   x
            x  Ca           5         0.500000  -0.000000   0.572772   x
            x  Ca           6        -0.000000   0.500000   0.427228   x
            x  Ca           7         0.500000  -0.000000   0.072772   x
            x  Ca           8        -0.000000   0.500000   0.927228   x
            x  Ca           9        -0.000000  -0.000000   0.677230   x
            x  Ca          10        -0.000000  -0.000000   0.322770   x
            x  Ca          11        -0.000000  -0.000000   0.177230   x
            x  Ca          12        -0.000000  -0.000000   0.822770   x
            x  Ca          13         0.500000   0.500000   0.177230   x
            x  Ca          14         0.500000   0.500000   0.822770   x
            x  Ca          15         0.500000   0.500000   0.677230   x
            x  Ca          16         0.500000   0.500000   0.322770   x
            x  Ge           1        -0.000000  -0.000000   0.000000   x
            x  Ge           2        -0.000000  -0.000000   0.500000   x
            x  Ge           3         0.500000   0.500000   0.500000   x
            x  Ge           4         0.500000   0.500000   0.000000   x
            x  Ge           5        -0.000000   0.500000   0.250000   x
            x  Ge           6         0.500000  -0.000000   0.750000   x
            x  Ge           7        -0.000000   0.500000   0.750000   x
            x  Ge           8         0.500000  -0.000000   0.250000   x
            x  Sr           1        -0.000000   0.500000   0.072772   x
            x  Sr           2         0.500000  -0.000000   0.927228   x
            x  Sr           3        -0.000000   0.500000   0.572772   x
            x  Sr           4         0.500000  -0.000000   0.427228   x
            x  Sr           5         0.500000  -0.000000   0.572772   x
            x  Sr           6        -0.000000   0.500000   0.427228   x
            x  Sr           7         0.500000  -0.000000   0.072772   x
            x  Sr           8        -0.000000   0.500000   0.927228   x
            x  Sr           9        -0.000000  -0.000000   0.677230   x
            x  Sr          10        -0.000000  -0.000000   0.322770   x
            x  Sr          11        -0.000000  -0.000000   0.177230   x
            x  Sr          12        -0.000000  -0.000000   0.822770   x
            x  Sr          13         0.500000   0.500000   0.177230   x
            x  Sr          14         0.500000   0.500000   0.822770   x
            x  Sr          15         0.500000   0.500000   0.677230   x
            x  Sr          16         0.500000   0.500000   0.322770   x
            xxxxxxxxxxxxxxxxxxxxxxxxxxxxxxxxxxxxxxxxxxxxxxxxxxxxxxxxxxxx
 
  
        xxxxxxxxxxxxxxxxxxxxxxxxxxxxxxxxxxxxxxxxxxxxxxxxxxxxxxxxxxxxxxxxxxxx
        x  Mixture   Fractional coordinates of atoms  Components  Weights  x
        x   atoms       u          v          w                            x
        x------------------------------------------------------------------x
        x    1       -0.000000   0.500000   0.072772   Ca        0.750000  x
        x                                              Sr        0.250000  x
        x    2        0.500000  -0.000000   0.927228   Ca        0.750000  x
        x                                              Sr        0.250000  x
        x    3       -0.000000   0.500000   0.572772   Ca        0.750000  x
        x                                              Sr        0.250000  x
        x    4        0.500000  -0.000000   0.427228   Ca        0.750000  x
        x                                              Sr        0.250000  x
        x    5        0.500000  -0.000000   0.572772   Ca        0.750000  x
        x                                              Sr        0.250000  x
        x    6       -0.000000   0.500000   0.427228   Ca        0.750000  x
        x                                              Sr        0.250000  x
        x    7        0.500000  -0.000000   0.072772   Ca        0.750000  x
        x                                              Sr        0.250000  x
        x    8       -0.000000   0.500000   0.927228   Ca        0.750000  x
        x                                              Sr        0.250000  x
        x    9       -0.000000  -0.000000   0.677230   Ca        0.750000  x
        x                                              Sr        0.250000  x
        x   10       -0.000000  -0.000000   0.322770   Ca        0.750000  x
        x                                              Sr        0.250000  x
        x   11       -0.000000  -0.000000   0.177230   Ca        0.750000  x
        x                                              Sr        0.250000  x
        x   12       -0.000000  -0.000000   0.822770   Ca        0.750000  x
        x                                              Sr        0.250000  x
        x   13        0.500000   0.500000   0.177230   Ca        0.750000  x
        x                                              Sr        0.250000  x
        x   14        0.500000   0.500000   0.822770   Ca        0.750000  x
        x                                              Sr        0.250000  x
        x   15        0.500000   0.500000   0.677230   Ca        0.750000  x
        x                                              Sr        0.250000  x
        x   16        0.500000   0.500000   0.322770   Ca        0.750000  x
        x                                              Sr        0.250000  x
        xxxxxxxxxxxxxxxxxxxxxxxxxxxxxxxxxxxxxxxxxxxxxxxxxxxxxxxxxxxxxxxxxxxx
 
 
------------------------------------------------------------------------ <-- SCF
SCF loop      Energy                           Energy gain       Timer   <-- SCF
                                               per atom          (sec)   <-- SCF
------------------------------------------------------------------------ <-- SCF
Initial  -4.88022979E+004                                       8231.14  <-- SCF
      1  -4.88033319E+004                    1.84651408E-002    8479.04  <-- SCF
      2  -4.88033324E+004                    8.04814880E-006    8727.55  <-- SCF
      3  -4.88033324E+004                    6.76832503E-008    8976.09  <-- SCF
      4  -4.88033324E+004                    1.96685160E-009    9225.03  <-- SCF
      5  -4.88033324E+004                    9.39121367E-011    9527.11  <-- SCF
      6  -4.88033324E+004                    7.29200120E-012    9879.43  <-- SCF
      7  -4.88033324E+004                    2.20969733E-013   10297.00  <-- SCF
      8  -4.88033324E+004                    0.00000000E+000   10739.17  <-- SCF
------------------------------------------------------------------------ <-- SCF
 
Final energy =  -48803.33239533     eV
(energy not corrected for finite basis set)
 
 
 *********************************** Forces ***********************************
 *                                                                            *
 *                        Cartesian components (eV/A)                         *
 * -------------------------------------------------------------------------- *
 *                   x                    y                    z              *
 *                                                                            *
 * O         1      0.03879              0.03879             -0.00000         *
 * O         2     -0.03879             -0.03879             -0.00000         *
 * O         3      0.03879             -0.03879             -0.00000         *
 * O         4     -0.03879              0.03879             -0.00000         *
 * O         5      0.03879             -0.03879              0.00000         *
 * O         6     -0.03879              0.03879              0.00000         *
 * O         7      0.03879              0.03879              0.00000         *
 * O         8     -0.03879             -0.03879              0.00000         *
 * O         9      0.00000              0.00000             -0.38112         *
 * O        10      0.00000              0.00000              0.38112         *
 * O        11      0.00000              0.00000             -0.38112         *
 * O        12      0.00000              0.00000              0.38112         *
 * O        13      0.00000              0.00000             -0.38112         *
 * O        14      0.00000              0.00000              0.38112         *
 * O        15      0.00000              0.00000             -0.38112         *
 * O        16      0.00000              0.00000              0.38112         *
 * O        17      0.00000              0.00000             -0.38284         *
 * O        18      0.00000              0.00000              0.38284         *
 * O        19      0.00000              0.00000             -0.38284         *
 * O        20      0.00000              0.00000              0.38284         *
 * O        21      0.00000              0.00000             -0.38284         *
 * O        22      0.00000              0.00000              0.38284         *
 * O        23      0.00000              0.00000             -0.38284         *
 * O        24      0.00000              0.00000              0.38284         *
 * O        25     -0.03368             -0.03368              0.00000         *
 * O        26      0.03368              0.03368              0.00000         *
 * O        27     -0.03368              0.03368             -0.00000         *
 * O        28      0.03368             -0.03368             -0.00000         *
 * O        29     -0.03368             -0.03368              0.00000         *
 * O        30      0.03368              0.03368              0.00000         *
 * O        31     -0.03368              0.03368              0.00000         *
 * O        32      0.03368             -0.03368              0.00000         *
 * Ca        1      0.00000 (mixed)      0.00000 (mixed)      0.05261 (mixed) *
 * Ca        2      0.00000 (mixed)      0.00000 (mixed)     -0.05261 (mixed) *
 * Ca        3      0.00000 (mixed)      0.00000 (mixed)      0.05261 (mixed) *
 * Ca        4      0.00000 (mixed)      0.00000 (mixed)     -0.05261 (mixed) *
 * Ca        5      0.00000 (mixed)      0.00000 (mixed)      0.05261 (mixed) *
 * Ca        6      0.00000 (mixed)      0.00000 (mixed)     -0.05261 (mixed) *
 * Ca        7      0.00000 (mixed)      0.00000 (mixed)      0.05261 (mixed) *
 * Ca        8      0.00000 (mixed)      0.00000 (mixed)     -0.05261 (mixed) *
 * Ca        9      0.00000 (mixed)      0.00000 (mixed)     -0.03944 (mixed) *
 * Ca       10      0.00000 (mixed)      0.00000 (mixed)      0.03944 (mixed) *
 * Ca       11      0.00000 (mixed)      0.00000 (mixed)     -0.03944 (mixed) *
 * Ca       12      0.00000 (mixed)      0.00000 (mixed)      0.03944 (mixed) *
 * Ca       13      0.00000 (mixed)      0.00000 (mixed)     -0.03944 (mixed) *
 * Ca       14      0.00000 (mixed)      0.00000 (mixed)      0.03944 (mixed) *
 * Ca       15      0.00000 (mixed)      0.00000 (mixed)     -0.03944 (mixed) *
 * Ca       16      0.00000 (mixed)      0.00000 (mixed)      0.03944 (mixed) *
 * Ge        1      0.00000              0.00000              0.00000         *
 * Ge        2      0.00000              0.00000             -0.00000         *
 * Ge        3      0.00000              0.00000             -0.00000         *
 * Ge        4      0.00000              0.00000              0.00000         *
 * Ge        5      0.00000              0.00000              0.00000         *
 * Ge        6      0.00000              0.00000              0.00000         *
 * Ge        7      0.00000              0.00000              0.00000         *
 * Ge        8      0.00000              0.00000              0.00000         *
 * Sr        1      0.00000 (mixed)      0.00000 (mixed)      0.05261 (mixed) *
 * Sr        2      0.00000 (mixed)      0.00000 (mixed)     -0.05261 (mixed) *
 * Sr        3      0.00000 (mixed)      0.00000 (mixed)      0.05261 (mixed) *
 * Sr        4      0.00000 (mixed)      0.00000 (mixed)     -0.05261 (mixed) *
 * Sr        5      0.00000 (mixed)      0.00000 (mixed)      0.05261 (mixed) *
 * Sr        6      0.00000 (mixed)      0.00000 (mixed)     -0.05261 (mixed) *
 * Sr        7      0.00000 (mixed)      0.00000 (mixed)      0.05261 (mixed) *
 * Sr        8      0.00000 (mixed)      0.00000 (mixed)     -0.05261 (mixed) *
 * Sr        9      0.00000 (mixed)      0.00000 (mixed)     -0.03944 (mixed) *
 * Sr       10      0.00000 (mixed)      0.00000 (mixed)      0.03944 (mixed) *
 * Sr       11      0.00000 (mixed)      0.00000 (mixed)     -0.03944 (mixed) *
 * Sr       12      0.00000 (mixed)      0.00000 (mixed)      0.03944 (mixed) *
 * Sr       13      0.00000 (mixed)      0.00000 (mixed)     -0.03944 (mixed) *
 * Sr       14      0.00000 (mixed)      0.00000 (mixed)      0.03944 (mixed) *
 * Sr       15      0.00000 (mixed)      0.00000 (mixed)     -0.03944 (mixed) *
 * Sr       16      0.00000 (mixed)      0.00000 (mixed)      0.03944 (mixed) *
 *                                                                            *
 ******************************************************************************
 
 ***************** Stress Tensor *****************
 *                                               *
 *          Cartesian components (GPa)           *
 * --------------------------------------------- *
 *             x             y             z     *
 *                                               *
 *  x     -3.034502      0.000000      0.000000  *
 *  y      0.000000     -3.034502      0.000000  *
 *  z      0.000000      0.000000     -5.391335  *
 *                                               *
 *  Pressure:    3.8201                          *
 *                                               *
 *************************************************
  
 +------------+-------------+-------------+-----------------+ <-- min BFGS
 |    Step    |   lambda    |   F.delta   |    enthalpy     | <-- min BFGS
 +------------+-------------+-------------+-----------------+ <-- min BFGS
 |  previous  |    0.000000 |    0.005226 |   -48791.513256 | <-- min BFGS
 | trial step |    1.000000 |    0.004226 |   -48791.579771 | <-- min BFGS
 +------------+-------------+-------------+-----------------+ <-- min BFGS
  

--------------------------------------------------------------------------------
 BFGS: improving iteration         1 with line minimization (lambda=  2.461238)
--------------------------------------------------------------------------------
 
+---------------- MEMORY AND SCRATCH DISK ESTIMATES PER PROCESS --------------+
|                                                     Memory          Disk    |
| Model and support data                              387.6 MB         0.0 MB |
| Electronic energy minimisation requirements         325.4 MB         0.0 MB |
| Geometry minimisation requirements                  378.1 MB         0.0 MB |
|                                               ----------------------------- |
| Approx. total storage required per process         1091.2 MB         0.0 MB |
|                                                                             |
| Requirements will fluctuate during execution and may exceed these estimates |
+-----------------------------------------------------------------------------+
 
 
                           -------------------------------
                                      Unit Cell
                           -------------------------------
        Real Lattice(A)              Reciprocal Lattice(1/A)
   5.2930245   0.0000000   0.0000000        1.1870690   0.0000000   0.0000000
   0.0000000   5.2930245   0.0000000        0.0000000   1.1870690   0.0000000
   0.0000000   0.0000000  23.5566285        0.0000000   0.0000000   0.2667268
 
                       Lattice parameters(A)       Cell Angles
                    a =    5.293025          alpha =   90.000000
                    b =    5.293025          beta  =   90.000000
                    c =   23.556628          gamma =   90.000000
 
                Current cell volume =  659.965063 A**3
 
                           -------------------------------
                                     Cell Contents
                           -------------------------------
 
            xxxxxxxxxxxxxxxxxxxxxxxxxxxxxxxxxxxxxxxxxxxxxxxxxxxxxxxxxxxx
            x  Element    Atom        Fractional coordinates of atoms  x
            x            Number           u          v          w      x
            x----------------------------------------------------------x
            x  O            1         0.731208   0.231208   0.000000   x
            x  O            2         0.268792   0.768792   0.000000   x
            x  O            3         0.231208   0.268792   0.000000   x
            x  O            4         0.768792   0.731208   0.000000   x
            x  O            5         0.731208   0.768792   0.500000   x
            x  O            6         0.268792   0.231208   0.500000   x
            x  O            7         0.231208   0.731208   0.500000   x
            x  O            8         0.768792   0.268792   0.500000   x
            x  O            9        -0.000000   0.500000   0.331232   x
            x  O           10         0.500000  -0.000000   0.668768   x
            x  O           11        -0.000000   0.500000   0.831232   x
            x  O           12         0.500000  -0.000000   0.168768   x
            x  O           13         0.500000  -0.000000   0.831232   x
            x  O           14        -0.000000   0.500000   0.168768   x
            x  O           15         0.500000  -0.000000   0.331232   x
            x  O           16        -0.000000   0.500000   0.668768   x
            x  O           17        -0.000000  -0.000000   0.581232   x
            x  O           18        -0.000000  -0.000000   0.418768   x
            x  O           19        -0.000000  -0.000000   0.081232   x
            x  O           20        -0.000000  -0.000000   0.918768   x
            x  O           21         0.500000   0.500000   0.081232   x
            x  O           22         0.500000   0.500000   0.918768   x
            x  O           23         0.500000   0.500000   0.581232   x
            x  O           24         0.500000   0.500000   0.418768   x
            x  O           25         0.767880   0.767880   0.250000   x
            x  O           26         0.232120   0.232120   0.250000   x
            x  O           27         0.767880   0.232120   0.750000   x
            x  O           28         0.232120   0.767880   0.750000   x
            x  O           29         0.267880   0.267880   0.750000   x
            x  O           30         0.732120   0.732120   0.750000   x
            x  O           31         0.267880   0.732120   0.250000   x
            x  O           32         0.732120   0.267880   0.250000   x
            x  Ca           1        -0.000000   0.500000   0.072775   x
            x  Ca           2         0.500000  -0.000000   0.927225   x
            x  Ca           3        -0.000000   0.500000   0.572775   x
            x  Ca           4         0.500000  -0.000000   0.427225   x
            x  Ca           5         0.500000  -0.000000   0.572775   x
            x  Ca           6        -0.000000   0.500000   0.427225   x
            x  Ca           7         0.500000  -0.000000   0.072775   x
            x  Ca           8        -0.000000   0.500000   0.927225   x
            x  Ca           9        -0.000000  -0.000000   0.677230   x
            x  Ca          10        -0.000000  -0.000000   0.322770   x
            x  Ca          11        -0.000000  -0.000000   0.177230   x
            x  Ca          12        -0.000000  -0.000000   0.822770   x
            x  Ca          13         0.500000   0.500000   0.177230   x
            x  Ca          14         0.500000   0.500000   0.822770   x
            x  Ca          15         0.500000   0.500000   0.677230   x
            x  Ca          16         0.500000   0.500000   0.322770   x
            x  Ge           1        -0.000000  -0.000000   0.000000   x
            x  Ge           2        -0.000000  -0.000000   0.500000   x
            x  Ge           3         0.500000   0.500000   0.500000   x
            x  Ge           4         0.500000   0.500000   0.000000   x
            x  Ge           5        -0.000000   0.500000   0.250000   x
            x  Ge           6         0.500000  -0.000000   0.750000   x
            x  Ge           7        -0.000000   0.500000   0.750000   x
            x  Ge           8         0.500000  -0.000000   0.250000   x
            x  Sr           1        -0.000000   0.500000   0.072775   x
            x  Sr           2         0.500000  -0.000000   0.927225   x
            x  Sr           3        -0.000000   0.500000   0.572775   x
            x  Sr           4         0.500000  -0.000000   0.427225   x
            x  Sr           5         0.500000  -0.000000   0.572775   x
            x  Sr           6        -0.000000   0.500000   0.427225   x
            x  Sr           7         0.500000  -0.000000   0.072775   x
            x  Sr           8        -0.000000   0.500000   0.927225   x
            x  Sr           9        -0.000000  -0.000000   0.677230   x
            x  Sr          10        -0.000000  -0.000000   0.322770   x
            x  Sr          11        -0.000000  -0.000000   0.177230   x
            x  Sr          12        -0.000000  -0.000000   0.822770   x
            x  Sr          13         0.500000   0.500000   0.177230   x
            x  Sr          14         0.500000   0.500000   0.822770   x
            x  Sr          15         0.500000   0.500000   0.677230   x
            x  Sr          16         0.500000   0.500000   0.322770   x
            xxxxxxxxxxxxxxxxxxxxxxxxxxxxxxxxxxxxxxxxxxxxxxxxxxxxxxxxxxxx
 
  
        xxxxxxxxxxxxxxxxxxxxxxxxxxxxxxxxxxxxxxxxxxxxxxxxxxxxxxxxxxxxxxxxxxxx
        x  Mixture   Fractional coordinates of atoms  Components  Weights  x
        x   atoms       u          v          w                            x
        x------------------------------------------------------------------x
        x    1       -0.000000   0.500000   0.072775   Ca        0.750000  x
        x                                              Sr        0.250000  x
        x    2        0.500000  -0.000000   0.927225   Ca        0.750000  x
        x                                              Sr        0.250000  x
        x    3       -0.000000   0.500000   0.572775   Ca        0.750000  x
        x                                              Sr        0.250000  x
        x    4        0.500000  -0.000000   0.427225   Ca        0.750000  x
        x                                              Sr        0.250000  x
        x    5        0.500000  -0.000000   0.572775   Ca        0.750000  x
        x                                              Sr        0.250000  x
        x    6       -0.000000   0.500000   0.427225   Ca        0.750000  x
        x                                              Sr        0.250000  x
        x    7        0.500000  -0.000000   0.072775   Ca        0.750000  x
        x                                              Sr        0.250000  x
        x    8       -0.000000   0.500000   0.927225   Ca        0.750000  x
        x                                              Sr        0.250000  x
        x    9       -0.000000  -0.000000   0.677230   Ca        0.750000  x
        x                                              Sr        0.250000  x
        x   10       -0.000000  -0.000000   0.322770   Ca        0.750000  x
        x                                              Sr        0.250000  x
        x   11       -0.000000  -0.000000   0.177230   Ca        0.750000  x
        x                                              Sr        0.250000  x
        x   12       -0.000000  -0.000000   0.822770   Ca        0.750000  x
        x                                              Sr        0.250000  x
        x   13        0.500000   0.500000   0.177230   Ca        0.750000  x
        x                                              Sr        0.250000  x
        x   14        0.500000   0.500000   0.822770   Ca        0.750000  x
        x                                              Sr        0.250000  x
        x   15        0.500000   0.500000   0.677230   Ca        0.750000  x
        x                                              Sr        0.250000  x
        x   16        0.500000   0.500000   0.322770   Ca        0.750000  x
        x                                              Sr        0.250000  x
        xxxxxxxxxxxxxxxxxxxxxxxxxxxxxxxxxxxxxxxxxxxxxxxxxxxxxxxxxxxxxxxxxxxx
 
 
------------------------------------------------------------------------ <-- SCF
SCF loop      Energy                           Energy gain       Timer   <-- SCF
                                               per atom          (sec)   <-- SCF
------------------------------------------------------------------------ <-- SCF
Initial  -4.88012617E+004                                      10962.18  <-- SCF
      1  -4.88034370E+004                    3.88440503E-002   11209.44  <-- SCF
      2  -4.88034379E+004                    1.69455980E-005   11457.87  <-- SCF
      3  -4.88034379E+004                    1.45634412E-007   11705.95  <-- SCF
      4  -4.88034379E+004                    4.40602600E-009   11953.32  <-- SCF
      5  -4.88034379E+004                    2.23621370E-010   12200.90  <-- SCF
      6  -4.88034379E+004                    1.42525478E-011   12511.58  <-- SCF
      7  -4.88034379E+004                    3.31454600E-012   12860.54  <-- SCF
      8  -4.88034379E+004                    4.41939467E-013   13259.58  <-- SCF
      9  -4.88034379E+004                    3.31454600E-013   13670.77  <-- SCF
------------------------------------------------------------------------ <-- SCF
 
Final energy =  -48803.43794932     eV
(energy not corrected for finite basis set)
 
 
 *********************************** Forces ***********************************
 *                                                                            *
 *                        Cartesian components (eV/A)                         *
 * -------------------------------------------------------------------------- *
 *                   x                    y                    z              *
 *                                                                            *
 * O         1      0.02102              0.02102             -0.00000         *
 * O         2     -0.02102             -0.02102             -0.00000         *
 * O         3      0.02102             -0.02102              0.00000         *
 * O         4     -0.02102              0.02102              0.00000         *
 * O         5      0.02102             -0.02102             -0.00000         *
 * O         6     -0.02102              0.02102             -0.00000         *
 * O         7      0.02102              0.02102             -0.00000         *
 * O         8     -0.02102             -0.02102             -0.00000         *
 * O         9      0.00000              0.00000             -0.41334         *
 * O        10      0.00000              0.00000              0.41334         *
 * O        11      0.00000              0.00000             -0.41334         *
 * O        12      0.00000              0.00000              0.41334         *
 * O        13      0.00000              0.00000             -0.41334         *
 * O        14      0.00000              0.00000              0.41334         *
 * O        15      0.00000              0.00000             -0.41334         *
 * O        16      0.00000              0.00000              0.41334         *
 * O        17      0.00000              0.00000             -0.41399         *
 * O        18      0.00000              0.00000              0.41399         *
 * O        19      0.00000              0.00000             -0.41399         *
 * O        20      0.00000              0.00000              0.41399         *
 * O        21      0.00000              0.00000             -0.41399         *
 * O        22      0.00000              0.00000              0.41399         *
 * O        23      0.00000              0.00000             -0.41399         *
 * O        24      0.00000              0.00000              0.41399         *
 * O        25     -0.01688             -0.01688              0.00000         *
 * O        26      0.01688              0.01688              0.00000         *
 * O        27     -0.01688              0.01688             -0.00000         *
 * O        28      0.01688             -0.01688             -0.00000         *
 * O        29     -0.01688             -0.01688              0.00000         *
 * O        30      0.01688              0.01688              0.00000         *
 * O        31     -0.01688              0.01688              0.00000         *
 * O        32      0.01688             -0.01688              0.00000         *
 * Ca        1      0.00000 (mixed)      0.00000 (mixed)      0.10112 (mixed) *
 * Ca        2      0.00000 (mixed)      0.00000 (mixed)     -0.10112 (mixed) *
 * Ca        3      0.00000 (mixed)      0.00000 (mixed)      0.10112 (mixed) *
 * Ca        4      0.00000 (mixed)      0.00000 (mixed)     -0.10112 (mixed) *
 * Ca        5      0.00000 (mixed)      0.00000 (mixed)      0.10112 (mixed) *
 * Ca        6      0.00000 (mixed)      0.00000 (mixed)     -0.10112 (mixed) *
 * Ca        7      0.00000 (mixed)      0.00000 (mixed)      0.10112 (mixed) *
 * Ca        8      0.00000 (mixed)      0.00000 (mixed)     -0.10112 (mixed) *
 * Ca        9      0.00000 (mixed)      0.00000 (mixed)     -0.08978 (mixed) *
 * Ca       10      0.00000 (mixed)      0.00000 (mixed)      0.08978 (mixed) *
 * Ca       11      0.00000 (mixed)      0.00000 (mixed)     -0.08978 (mixed) *
 * Ca       12      0.00000 (mixed)      0.00000 (mixed)      0.08978 (mixed) *
 * Ca       13      0.00000 (mixed)      0.00000 (mixed)     -0.08978 (mixed) *
 * Ca       14      0.00000 (mixed)      0.00000 (mixed)      0.08978 (mixed) *
 * Ca       15      0.00000 (mixed)      0.00000 (mixed)     -0.08978 (mixed) *
 * Ca       16      0.00000 (mixed)      0.00000 (mixed)      0.08978 (mixed) *
 * Ge        1      0.00000              0.00000             -0.00000         *
 * Ge        2      0.00000              0.00000              0.00000         *
 * Ge        3      0.00000              0.00000              0.00000         *
 * Ge        4      0.00000              0.00000              0.00000         *
 * Ge        5      0.00000              0.00000              0.00000         *
 * Ge        6      0.00000              0.00000             -0.00000         *
 * Ge        7      0.00000              0.00000             -0.00000         *
 * Ge        8      0.00000              0.00000              0.00000         *
 * Sr        1      0.00000 (mixed)      0.00000 (mixed)      0.10112 (mixed) *
 * Sr        2      0.00000 (mixed)      0.00000 (mixed)     -0.10112 (mixed) *
 * Sr        3      0.00000 (mixed)      0.00000 (mixed)      0.10112 (mixed) *
 * Sr        4      0.00000 (mixed)      0.00000 (mixed)     -0.10112 (mixed) *
 * Sr        5      0.00000 (mixed)      0.00000 (mixed)      0.10112 (mixed) *
 * Sr        6      0.00000 (mixed)      0.00000 (mixed)     -0.10112 (mixed) *
 * Sr        7      0.00000 (mixed)      0.00000 (mixed)      0.10112 (mixed) *
 * Sr        8      0.00000 (mixed)      0.00000 (mixed)     -0.10112 (mixed) *
 * Sr        9      0.00000 (mixed)      0.00000 (mixed)     -0.08978 (mixed) *
 * Sr       10      0.00000 (mixed)      0.00000 (mixed)      0.08978 (mixed) *
 * Sr       11      0.00000 (mixed)      0.00000 (mixed)     -0.08978 (mixed) *
 * Sr       12      0.00000 (mixed)      0.00000 (mixed)      0.08978 (mixed) *
 * Sr       13      0.00000 (mixed)      0.00000 (mixed)     -0.08978 (mixed) *
 * Sr       14      0.00000 (mixed)      0.00000 (mixed)      0.08978 (mixed) *
 * Sr       15      0.00000 (mixed)      0.00000 (mixed)     -0.08978 (mixed) *
 * Sr       16      0.00000 (mixed)      0.00000 (mixed)      0.08978 (mixed) *
 *                                                                            *
 ******************************************************************************
 
 ***************** Stress Tensor *****************
 *                                               *
 *          Cartesian components (GPa)           *
 * --------------------------------------------- *
 *             x             y             z     *
 *                                               *
 *  x     -2.670830      0.000000      0.000000  *
 *  y      0.000000     -2.670830      0.000000  *
 *  z      0.000000      0.000000     -3.274616  *
 *                                               *
 *  Pressure:    2.8721                          *
 *                                               *
 *************************************************
  
 +------------+-------------+-------------+-----------------+ <-- min BFGS
 |    Step    |   lambda    |   F.delta   |    enthalpy     | <-- min BFGS
 +------------+-------------+-------------+-----------------+ <-- min BFGS
 |  previous  |    0.000000 |    0.005226 |   -48791.513256 | <-- min BFGS
 | trial step |    1.000000 |    0.004226 |   -48791.579771 | <-- min BFGS
 |  line step |    2.461238 |    0.002851 |   -48791.629620 | <-- min BFGS
 +------------+-------------+-------------+-----------------+ <-- min BFGS
  
 BFGS: finished iteration     1 with enthalpy= -4.87916296E+004 eV
  
 +-----------+-----------------+-----------------+------------+-----+ <-- BFGS
 | Parameter |      value      |    tolerance    |    units   | OK? | <-- BFGS
 +-----------+-----------------+-----------------+------------+-----+ <-- BFGS
 |  dE/ion   |   1.616164E-003 |   2.000000E-005 |         eV | No  | <-- BFGS
 |  |F|max   |   4.139892E-001 |   1.000000E-004 |       eV/A | No  | <-- BFGS
 |  |dR|max  |   2.555510E-003 |   1.000000E-003 |          A | No  | <-- BFGS
 |   Smax    |   3.274616E+000 |   1.000000E-002 |        GPa | No  | <-- BFGS
 +-----------+-----------------+-----------------+------------+-----+ <-- BFGS
  

================================================================================
 Starting BFGS iteration          2 ...
================================================================================
  
 +------------+-------------+-------------+-----------------+ <-- min BFGS
 |    Step    |   lambda    |   F.delta   |    enthalpy     | <-- min BFGS
 +------------+-------------+-------------+-----------------+ <-- min BFGS
 |  previous  |    0.000000 |    0.010256 |   -48791.629620 | <-- min BFGS
 +------------+-------------+-------------+-----------------+ <-- min BFGS
  

--------------------------------------------------------------------------------
 BFGS: starting iteration         2 with trial guess (lambda=  0.783276)
--------------------------------------------------------------------------------
 
+---------------- MEMORY AND SCRATCH DISK ESTIMATES PER PROCESS --------------+
|                                                     Memory          Disk    |
| Model and support data                              393.4 MB         0.0 MB |
| Electronic energy minimisation requirements         328.7 MB         0.0 MB |
| Geometry minimisation requirements                  382.0 MB         0.0 MB |
|                                               ----------------------------- |
| Approx. total storage required per process         1104.2 MB         0.0 MB |
|                                                                             |
| Requirements will fluctuate during execution and may exceed these estimates |
+-----------------------------------------------------------------------------+
 
 
                           -------------------------------
                                      Unit Cell
                           -------------------------------
        Real Lattice(A)              Reciprocal Lattice(1/A)
   5.2771376   0.0000000   0.0000000        1.1906427   0.0000000   0.0000000
   0.0000000   5.2771376   0.0000000        0.0000000   1.1906427   0.0000000
   0.0000000   0.0000000  23.8212171        0.0000000   0.0000000   0.2637642
 
                       Lattice parameters(A)       Cell Angles
                    a =    5.277138          alpha =   90.000000
                    b =    5.277138          beta  =   90.000000
                    c =   23.821217          gamma =   90.000000
 
                Current cell volume =  663.377577 A**3
 
                           -------------------------------
                                     Cell Contents
                           -------------------------------
 
            xxxxxxxxxxxxxxxxxxxxxxxxxxxxxxxxxxxxxxxxxxxxxxxxxxxxxxxxxxxx
            x  Element    Atom        Fractional coordinates of atoms  x
            x            Number           u          v          w      x
            x----------------------------------------------------------x
            x  O            1         0.731273   0.231273  -0.000000   x
            x  O            2         0.268727   0.768727  -0.000000   x
            x  O            3         0.231273   0.268727  -0.000000   x
            x  O            4         0.768727   0.731273  -0.000000   x
            x  O            5         0.731273   0.768727   0.500000   x
            x  O            6         0.268727   0.231273   0.500000   x
            x  O            7         0.231273   0.731273   0.500000   x
            x  O            8         0.768727   0.268727   0.500000   x
            x  O            9        -0.000000   0.500000   0.331072   x
            x  O           10         0.500000  -0.000000   0.668928   x
            x  O           11        -0.000000   0.500000   0.831072   x
            x  O           12         0.500000  -0.000000   0.168928   x
            x  O           13         0.500000  -0.000000   0.831072   x
            x  O           14        -0.000000   0.500000   0.168928   x
            x  O           15         0.500000  -0.000000   0.331072   x
            x  O           16        -0.000000   0.500000   0.668928   x
            x  O           17        -0.000000  -0.000000   0.581071   x
            x  O           18        -0.000000  -0.000000   0.418929   x
            x  O           19        -0.000000  -0.000000   0.081071   x
            x  O           20        -0.000000  -0.000000   0.918929   x
            x  O           21         0.500000   0.500000   0.081071   x
            x  O           22         0.500000   0.500000   0.918929   x
            x  O           23         0.500000   0.500000   0.581071   x
            x  O           24         0.500000   0.500000   0.418929   x
            x  O           25         0.767824   0.767824   0.250000   x
            x  O           26         0.232176   0.232176   0.250000   x
            x  O           27         0.767824   0.232176   0.750000   x
            x  O           28         0.232176   0.767824   0.750000   x
[...]
         O 6  -- Ge 3              0.53        1.86178
         O 3  -- Ge 4              0.53        1.86178
         O 1  -- Ge 4              0.53        1.86178
         O 2  -- Ge 1              0.53        1.86178
         O 4  -- Ge 1              0.53        1.86178
         O 5  -- Ge 2              0.53        1.86178
         O 6  -- Ge 2              0.53        1.86178
         O 3  -- Ge 1              0.53        1.86178
         O 2  -- Ge 4              0.53        1.86178
         O 5  -- Ge 3              0.53        1.86178
         O 7  -- Ge 2              0.53        1.86178
         O 1  -- Ge 1              0.53        1.86178
         O 4  -- Ge 4              0.53        1.86178
         O 8  -- Ge 3              0.53        1.86178
         O 28 -- Ge 6              0.53        1.86181
         O 27 -- Ge 7              0.53        1.86181
         O 26 -- Ge 8              0.53        1.86181
         O 31 -- Ge 5              0.53        1.86181
         O 29 -- Ge 7              0.53        1.86181
         O 29 -- Ge 6              0.53        1.86181
         O 26 -- Ge 5              0.53        1.86181
         O 32 -- Ge 8              0.53        1.86181
         O 32 -- Ge 5              0.53        1.86181
         O 31 -- Ge 8              0.53        1.86181
         O 30 -- Ge 7              0.53        1.86181
         O 30 -- Ge 6              0.53        1.86181
         O 25 -- Ge 5              0.53        1.86181
         O 25 -- Ge 8              0.53        1.86181
         O 28 -- Ge 7              0.53        1.86181
         O 27 -- Ge 6              0.53        1.86181
         O 15 -- Ge 8              0.52        1.95133
         O 9  -- Ge 5              0.52        1.95133
         O 14 -- Ge 5              0.52        1.95133
         O 12 -- Ge 8              0.52        1.95133
         O 13 -- Ge 6              0.52        1.95133
         O 11 -- Ge 7              0.52        1.95133
         O 16 -- Ge 7              0.52        1.95133
         O 10 -- Ge 6              0.52        1.95133
         O 21 -- Ge 4              0.52        1.95150
         O 19 -- Ge 1              0.52        1.95150
         O 23 -- Ge 3              0.52        1.95150
         O 17 -- Ge 2              0.52        1.95150
         O 24 -- Ge 3              0.52        1.95150
         O 22 -- Ge 4              0.52        1.95150
         O 20 -- Ge 1              0.52        1.95150
         O 18 -- Ge 2              0.52        1.95150
         O 24 -- Sr 16             0.54        2.34789
         O 24 -- Ca 16            -0.22        2.34789
         O 18 -- Sr 10             0.54        2.34789
         O 18 -- Ca 10            -0.22        2.34789
         O 22 -- Sr 14             0.54        2.34789
         O 22 -- Ca 14            -0.22        2.34789
         O 20 -- Sr 12             0.54        2.34789
         O 20 -- Ca 12            -0.22        2.34789
         O 23 -- Sr 15             0.54        2.34789
         O 23 -- Ca 15            -0.22        2.34789
         O 17 -- Sr 9              0.54        2.34789
         O 17 -- Ca 9             -0.22        2.34789
         O 21 -- Sr 13             0.54        2.34789
         O 21 -- Ca 13            -0.22        2.34789
         O 19 -- Sr 11             0.54        2.34789
         O 19 -- Ca 11            -0.22        2.34789
         O 16 -- Sr 3              0.54        2.34797
         O 16 -- Ca 3             -0.22        2.34797
         O 13 -- Sr 2              0.54        2.34797
         O 13 -- Ca 2             -0.22        2.34797
         O 11 -- Sr 8              0.54        2.34797
         O 11 -- Ca 8             -0.22        2.34797
         O 10 -- Sr 5              0.54        2.34797
         O 10 -- Ca 5             -0.22        2.34797
         O 15 -- Sr 4              0.54        2.34797
         O 15 -- Ca 4             -0.22        2.34797
         O 9  -- Sr 6              0.54        2.34797
         O 9  -- Ca 6             -0.22        2.34797
         O 14 -- Sr 1              0.54        2.34797
         O 14 -- Ca 1             -0.22        2.34797
         O 12 -- Sr 7              0.54        2.34797
         O 12 -- Ca 7             -0.22        2.34797
         O 29 -- Sr 14            -0.06        2.37577
         O 29 -- Ca 14             0.05        2.37577
         O 28 -- Sr 12            -0.06        2.37577
         O 28 -- Ca 12             0.05        2.37577
         O 27 -- Sr 12            -0.06        2.37577
         O 27 -- Ca 12             0.05        2.37577
         O 25 -- Sr 11            -0.06        2.37577
         O 25 -- Ca 11             0.05        2.37577
         O 30 -- Sr 14            -0.06        2.37577
         O 30 -- Ca 14             0.05        2.37577
         O 32 -- Sr 13            -0.06        2.37577
         O 32 -- Ca 13             0.05        2.37577
         O 31 -- Sr 13            -0.06        2.37577
         O 31 -- Ca 13             0.05        2.37577
         O 26 -- Sr 11            -0.06        2.37577
         O 26 -- Ca 11             0.05        2.37577
         O 25 -- Sr 10            -0.06        2.37577
         O 25 -- Ca 10             0.05        2.37577
         O 31 -- Sr 16            -0.06        2.37577
         O 31 -- Ca 16             0.05        2.37577
         O 29 -- Sr 15            -0.06        2.37577
         O 29 -- Ca 15             0.05        2.37577
         O 28 -- Sr 9             -0.06        2.37577
         O 28 -- Ca 9              0.05        2.37577
         O 27 -- Sr 9             -0.06        2.37577
         O 27 -- Ca 9              0.05        2.37577
         O 32 -- Sr 16            -0.06        2.37577
         O 32 -- Ca 16             0.05        2.37577
         O 30 -- Sr 15            -0.06        2.37577
         O 30 -- Ca 15             0.05        2.37577
         O 26 -- Sr 10            -0.06        2.37577
         O 26 -- Ca 10             0.05        2.37577
         O 8  -- Sr 3             -0.06        2.37596
         O 8  -- Ca 3              0.05        2.37596
         O 4  -- Sr 8             -0.06        2.37596
         O 4  -- Sr 1             -0.06        2.37596
         O 4  -- Ca 8              0.05        2.37596
         O 4  -- Ca 1              0.05        2.37596
         O 5  -- Sr 5             -0.06        2.37596
         O 5  -- Ca 5              0.05        2.37596
         O 2  -- Sr 7             -0.06        2.37596
         O 2  -- Sr 2             -0.06        2.37596
         O 2  -- Ca 7              0.05        2.37596
         O 2  -- Ca 2              0.05        2.37596
         O 7  -- Sr 3             -0.06        2.37596
         O 7  -- Ca 3              0.05        2.37596
         O 6  -- Sr 5             -0.06        2.37596
         O 6  -- Ca 5              0.05        2.37596
         O 3  -- Sr 8             -0.06        2.37596
         O 3  -- Sr 1             -0.06        2.37596
         O 3  -- Ca 8              0.05        2.37596
         O 3  -- Ca 1              0.05        2.37596
         O 1  -- Sr 7             -0.06        2.37596
         O 1  -- Sr 2             -0.06        2.37596
         O 1  -- Ca 7              0.05        2.37596
         O 1  -- Ca 2              0.05        2.37596
         O 8  -- Sr 6             -0.06        2.37596
         O 8  -- Ca 6              0.05        2.37596
         O 5  -- Sr 4             -0.06        2.37596
         O 5  -- Ca 4              0.05        2.37596
         O 7  -- Sr 6             -0.06        2.37596
         O 7  -- Ca 6              0.05        2.37596
         O 6  -- Sr 4             -0.06        2.37596
         O 6  -- Ca 4              0.05        2.37596
         O 15 -- Sr 10             0.91        2.59444
         O 15 -- Ca 10            -0.55        2.59444
         O 14 -- Sr 13             0.91        2.59444
         O 14 -- Ca 13            -0.55        2.59444
         O 12 -- Sr 11             0.91        2.59444
         O 12 -- Ca 11            -0.55        2.59444
         O 9  -- Sr 16             0.91        2.59444
         O 9  -- Ca 16            -0.55        2.59444
         O 16 -- Sr 15             0.91        2.59444
         O 16 -- Ca 15            -0.55        2.59444
         O 15 -- Sr 16             0.91        2.59444
         O 15 -- Ca 16            -0.55        2.59444
         O 13 -- Sr 12             0.91        2.59444
         O 13 -- Ca 12            -0.55        2.59444
         O 11 -- Sr 14             0.91        2.59444
         O 11 -- Ca 14            -0.55        2.59444
         O 10 -- Sr 9              0.91        2.59444
         O 10 -- Ca 9             -0.55        2.59444
         O 9  -- Sr 10             0.91        2.59444
         O 9  -- Ca 10            -0.55        2.59444
         O 14 -- Sr 11             0.91        2.59444
         O 14 -- Ca 11            -0.55        2.59444
         O 12 -- Sr 13             0.91        2.59444
         O 12 -- Ca 13            -0.55        2.59444
         O 16 -- Sr 9              0.91        2.59444
         O 16 -- Ca 9             -0.55        2.59444
         O 13 -- Sr 14             0.91        2.59444
         O 13 -- Ca 14            -0.55        2.59444
         O 11 -- Sr 12             0.91        2.59444
         O 11 -- Ca 12            -0.55        2.59444
         O 10 -- Sr 15             0.91        2.59444
         O 10 -- Ca 15            -0.55        2.59444
         O 24 -- Sr 6              0.91        2.59445
         O 24 -- Ca 6             -0.55        2.59445
         O 23 -- Sr 3              0.91        2.59445
         O 23 -- Ca 3             -0.55        2.59445
         O 21 -- Sr 1              0.91        2.59445
         O 21 -- Ca 1             -0.55        2.59445
         O 19 -- Sr 7              0.91        2.59445
         O 19 -- Ca 7             -0.55        2.59445
         O 18 -- Sr 4              0.91        2.59445
         O 18 -- Ca 4             -0.55        2.59445
         O 17 -- Sr 5              0.91        2.59445
         O 17 -- Ca 5             -0.55        2.59445
         O 24 -- Sr 4              0.91        2.59445
         O 24 -- Ca 4             -0.55        2.59445
         O 22 -- Sr 8              0.91        2.59445
         O 22 -- Ca 8             -0.55        2.59445
         O 20 -- Sr 2              0.91        2.59445
         O 20 -- Ca 2             -0.55        2.59445
         O 18 -- Sr 6              0.91        2.59445
         O 18 -- Ca 6             -0.55        2.59445
         O 23 -- Sr 5              0.91        2.59445
         O 23 -- Ca 5             -0.55        2.59445
         O 22 -- Sr 2              0.91        2.59445
         O 22 -- Ca 2             -0.55        2.59445
         O 21 -- Sr 7              0.91        2.59445
         O 21 -- Ca 7             -0.55        2.59445
         O 20 -- Sr 8              0.91        2.59445
         O 20 -- Ca 8             -0.55        2.59445
         O 19 -- Sr 1              0.91        2.59445
         O 19 -- Ca 1             -0.55        2.59445
         O 17 -- Sr 3              0.91        2.59445
         O 17 -- Ca 3             -0.55        2.59445
         O 6  -- O 8              -0.15        2.63295
         O 1  -- O 3              -0.15        2.63295
         O 6  -- O 7              -0.15        2.63295
         O 5  -- O 7              -0.15        2.63295
         O 2  -- O 4              -0.15        2.63295
         O 1  -- O 4              -0.15        2.63295
         O 2  -- O 3              -0.15        2.63295
         O 5  -- O 8              -0.15        2.63295
         O 28 -- O 30             -0.15        2.63299
         O 28 -- O 29             -0.15        2.63299
         O 27 -- O 30             -0.15        2.63299
         O 27 -- O 29             -0.15        2.63299
         O 26 -- O 32             -0.15        2.63299
         O 26 -- O 31             -0.15        2.63299
         O 25 -- O 32             -0.15        2.63299
         O 25 -- O 31             -0.15        2.63299
         O 15 -- O 26             -0.07        2.69704
         O 15 -- O 31             -0.07        2.69704
         O 9  -- O 31             -0.07        2.69704
         O 9  -- O 26             -0.07        2.69704
         O 15 -- O 32             -0.07        2.69704
         O 15 -- O 25             -0.07        2.69704
         O 9  -- O 32             -0.07        2.69704
         O 9  -- O 25             -0.07        2.69704
         O 12 -- O 26             -0.07        2.69704
         O 14 -- O 31             -0.07        2.69704
         O 14 -- O 26             -0.07        2.69704
         O 12 -- O 31             -0.07        2.69704
         O 14 -- O 32             -0.07        2.69704
         O 14 -- O 25             -0.07        2.69704
         O 12 -- O 32             -0.07        2.69704
         O 12 -- O 25             -0.07        2.69704
         O 13 -- O 28             -0.07        2.69704
         O 11 -- O 27             -0.07        2.69704
         O 13 -- O 29             -0.07        2.69704
         O 11 -- O 30             -0.07        2.69704
         O 11 -- O 29             -0.07        2.69704
         O 13 -- O 30             -0.07        2.69704
         O 13 -- O 27             -0.07        2.69704
         O 11 -- O 28             -0.07        2.69704
         O 10 -- O 28             -0.07        2.69704
         O 16 -- O 27             -0.07        2.69704
         O 16 -- O 30             -0.07        2.69704
         O 16 -- O 29             -0.07        2.69704
         O 10 -- O 30             -0.07        2.69704
         O 10 -- O 29             -0.07        2.69704
         O 16 -- O 28             -0.07        2.69704
         O 10 -- O 27             -0.07        2.69704
         O 4  -- O 19             -0.07        2.69714
         O 3  -- O 21             -0.07        2.69714
         O 2  -- O 19             -0.07        2.69714
         O 1  -- O 21             -0.07        2.69714
         O 3  -- O 19             -0.07        2.69714
         O 2  -- O 21             -0.07        2.69714
         O 1  -- O 19             -0.07        2.69714
         O 4  -- O 21             -0.07        2.69714
         O 8  -- O 18             -0.07        2.69714
         O 7  -- O 24             -0.07        2.69714
         O 6  -- O 24             -0.07        2.69714
         O 5  -- O 18             -0.07        2.69714
         O 6  -- O 18             -0.07        2.69714
         O 8  -- O 17             -0.07        2.69714
         O 7  -- O 23             -0.07        2.69714
         O 7  -- O 18             -0.07        2.69714
         O 6  -- O 23             -0.07        2.69714
         O 5  -- O 24             -0.07        2.69714
         O 3  -- O 22             -0.07        2.69714
         O 1  -- O 22             -0.07        2.69714
         O 8  -- O 24             -0.07        2.69714
         O 5  -- O 17             -0.07        2.69714
         O 4  -- O 20             -0.07        2.69714
         O 2  -- O 20             -0.07        2.69714
         O 6  -- O 17             -0.07        2.69714
         O 3  -- O 20             -0.07        2.69714
         O 2  -- O 22             -0.07        2.69714
         O 7  -- O 17             -0.07        2.69714
         O 5  -- O 23             -0.07        2.69714
         O 1  -- O 20             -0.07        2.69714
         O 8  -- O 23             -0.07        2.69714
         O 4  -- O 22             -0.07        2.69714
         O 6  -- Sr 3              0.07        2.83620
         O 6  -- Ca 3             -0.20        2.83620
         O 3  -- Sr 7              0.07        2.83620
         O 3  -- Sr 2              0.07        2.83620
         O 3  -- Ca 7             -0.20        2.83620
         O 3  -- Ca 2             -0.20        2.83620
         O 7  -- Sr 5              0.07        2.83620
         O 7  -- Ca 5             -0.20        2.83620
         O 1  -- Sr 8              0.07        2.83620
         O 1  -- Sr 1              0.07        2.83620
         O 1  -- Ca 8             -0.20        2.83620
         O 1  -- Ca 1             -0.20        2.83620
         O 2  -- Sr 8              0.07        2.83620
         O 2  -- Sr 1              0.07        2.83620
         O 2  -- Ca 8             -0.20        2.83620
         O 2  -- Ca 1             -0.20        2.83620
         O 5  -- Sr 3              0.07        2.83620
         O 5  -- Ca 3             -0.20        2.83620
         O 8  -- Sr 5              0.07        2.83620
         O 8  -- Ca 5             -0.20        2.83620
         O 4  -- Sr 7              0.07        2.83620
         O 4  -- Sr 2              0.07        2.83620
         O 4  -- Ca 7             -0.20        2.83620
         O 4  -- Ca 2             -0.20        2.83620
         O 6  -- Sr 6              0.07        2.83620
         O 6  -- Ca 6             -0.20        2.83620
         O 7  -- Sr 4              0.07        2.83620
         O 7  -- Ca 4             -0.20        2.83620
         O 8  -- Sr 4              0.07        2.83620
         O 8  -- Ca 4             -0.20        2.83620
         O 5  -- Sr 6              0.07        2.83620
         O 5  -- Ca 6             -0.20        2.83620
         O 26 -- Sr 13             0.07        2.83628
         O 26 -- Ca 13            -0.20        2.83628
         O 30 -- Sr 12             0.07        2.83628
         O 30 -- Ca 12            -0.20        2.83628
         O 29 -- Sr 12             0.07        2.83628
         O 29 -- Ca 12            -0.20        2.83628
         O 28 -- Sr 14             0.07        2.83628
         O 28 -- Ca 14            -0.20        2.83628
         O 32 -- Sr 11             0.07        2.83628
         O 32 -- Ca 11            -0.20        2.83628
         O 31 -- Sr 11             0.07        2.83628
         O 31 -- Ca 11            -0.20        2.83628
         O 27 -- Sr 14             0.07        2.83628
         O 27 -- Ca 14            -0.20        2.83628
         O 26 -- Sr 16             0.07        2.83628
         O 26 -- Ca 16            -0.20        2.83628
         O 25 -- Sr 13             0.07        2.83628
         O 25 -- Ca 13            -0.20        2.83628
         O 32 -- Sr 10             0.07        2.83628
         O 32 -- Ca 10            -0.20        2.83628
         O 31 -- Sr 10             0.07        2.83628
         O 31 -- Ca 10            -0.20        2.83628
         O 29 -- Sr 9              0.07        2.83628
         O 29 -- Ca 9             -0.20        2.83628
         O 28 -- Sr 15             0.07        2.83628
         O 28 -- Ca 15            -0.20        2.83628
         O 30 -- Sr 9              0.07        2.83628
         O 30 -- Ca 9             -0.20        2.83628
         O 27 -- Sr 15             0.07        2.83628
         O 27 -- Ca 15            -0.20        2.83628
         O 25 -- Sr 16             0.07        2.83628
         O 25 -- Ca 16            -0.20        2.83628
============================================================
 

Writing analysis data to Ca1.5Sr0.5GeO4.castep_bin

Writing model to Ca1.5Sr0.5GeO4.check
 
 A BibTeX formatted list of references used in this run has been written to 
 Ca1.5Sr0.5GeO4.bib
 
Initialisation time =     10.42 s
Calculation time    = 151182.89 s
Finalisation time   =     32.40 s
Total time          = 151225.70 s
Peak Memory Use     = 1213788 kB
  
Overall parallel efficiency rating: Poor (41%)                                  
  
Data was distributed by:-
G-vector (6-way); efficiency rating: Poor (43%)                                 
k-point (6-way); efficiency rating: Very good (89%)                             
