 +-------------------------------------------------+
 |                                                 |
 |      CCC   AA    SSS  TTTTT  EEEEE  PPPP        |
 |     C     A  A  S       T    E      P   P       |
 |     C     AAAA   SS     T    EEE    PPPP        |
 |     C     A  A     S    T    E      P           |
 |      CCC  A  A  SSS     T    EEEEE  P           |
 |                                                 |
 +-------------------------------------------------+
 |                                                 |
 | Welcome to Academic Release CASTEP version 7.03 |
 | Ab Initio Total Energy Program                  |
 |                                                 |
 | Authors:                                        |
 | M. Segall, M. Probert, C. Pickard, P. Hasnip,   |
 | S. Clark, K. Refson, J. R. Yates, M. Payne      |
 |                                                 |
 | Contributors:                                   |
 | P. Lindan, P. Haynes, J. White, V. Milman,      |
 | N. Govind, M. Gibson, P. Tulip, V. Cocula,      |
 | B. Montanari, D. Quigley, M. Glover,            |
 | L. Bernasconi, A. Perlov, M. Plummer,           |
 | E. McNellis, J. Meyer, J. Gale, D. Jochym       |
 | J. Aarons, B. Walker, R. Gillen, D. Jones       |
 |                                                 |
 | Copyright (c) 2000 - 2013                       |
 |                                                 |
 |     Distributed under the terms of an           |
 |     Agreement between the United Kingdom        |
 |     Car-Parrinello (UKCP) Consortium,           |
 |     Daresbury Laboratory and Accelrys, Inc.     |
 |                                                 |
 | Please cite                                     |
 |                                                 |
 |     "First principles methods using CASTEP"     |
 |                                                 |
 |         Zeitschrift fuer Kristallographie       |
 |           220(5-6) pp. 567-570 (2005)           |
 |                                                 |
 | S. J. Clark, M. D. Segall, C. J. Pickard,       |
 | P. J. Hasnip, M. J. Probert, K. Refson,         |
 | M. C. Payne                                     |
 |                                                 |
 |       in all publications arising from          |
 |              your use of CASTEP                 |
 |                                                 |
 +-------------------------------------------------+


 Compiled for linux_x86_64_gfortran4.8 on Tue, 09 May 2017 16:48:29 +0100
 from code version 824badb45ac0+ Castep70_branch Thu, 05 Jun 2014 11:49:23 +0100
 Compiler: GNU Fortran 4.9.2; Optimisation: fast
 MATHLIBS: Intel MKL(11.2.2) (LAPACK version 3.5.0)
 FFT Lib : mkl

 Run started: Thu, 30 May 2019 10:56:24 +0100

 Pseudo atomic calculation performed for O 2s2 2p4

 Converged in 48 iterations to a total energy of -428.1613 eV


 Pseudo atomic calculation performed for Ca 3s2 3p6 4s2

 Converged in 43 iterations to a total energy of -1004.5698 eV


 Pseudo atomic calculation performed for Ti 3s2 3p6 3d2 4s2

 Converged in 63 iterations to a total energy of -1575.3925 eV


 Pseudo atomic calculation performed for Sr 4s2 4p6 5s2

 Converged in 45 iterations to a total energy of -886.1245 eV

 Calculation parallelised over 18 processes.
 Data is distributed by G-vector(2-way) and k-point(9-way)

 ************************************ Title ************************************
 

 ***************************** General Parameters ******************************
  
 output verbosity                               : normal  (1)
 write checkpoint data to                       : Ca2.15Sr0.85Ti2O7_Amam.check
 type of calculation                            : geometry optimization
 stress calculation                             : on
 density difference calculation                 : off
 electron localisation func (ELF) calculation   : off
 Hirshfeld analysis                             : off
 calculation limited to maximum                 :     170000   seconds
 timing information                             : on
 memory usage estimate                          : on
 write final potential to formatted file        : off
 write final density to formatted file          : off
 write structure in CELL formatted file         : on
 write BibTeX reference list                    : on
  
 output         length unit                     : A
 output           mass unit                     : amu
 output           time unit                     : ps
 output         charge unit                     : e
 output         energy unit                     : eV
 output          force unit                     : eV/A
 output       velocity unit                     : A/ps
 output       pressure unit                     : GPa
 output     inv_length unit                     : 1/A
 output      frequency unit                     : cm-1
 output force constant unit                     : eV/A**2
 output         volume unit                     : A**3
 output   IR intensity unit                     : (D/A)**2/amu
 output         dipole unit                     : D
 output         efield unit                     : eV/A/e
 output        entropy unit                     : J/mol/K
  
 wavefunctions paging                           : none
 random number generator seed                   : randomised (105624652)
 data distribution                              : optimal for this architecture
 optimization strategy                          : maximize speed(+++)

 *********************** Exchange-Correlation Parameters ***********************
  
 using functional                               : PBE for solids (2008)
 Divergence correction                          : off
 DFT+D: Semi-empirical dispersion correction    : off

 ************************* Pseudopotential Parameters **************************
  
 pseudopotential representation                 : reciprocal space
 <beta|phi> representation                      : reciprocal space

 **************************** Basis Set Parameters *****************************
  
 plane wave basis set cut-off                   :  1400.0000   eV
 size of standard grid                          :     2.0000
 size of   fine   grid                          :     3.0000
 size of   fine   gmax                          :    57.5074   1/A
 largest prime factor in FFT                    :          5
 finite basis set correction                    : automatic
 number of sample energies                      :          3
           sample  spacing                      :     5.0000   eV

 **************************** Electronic Parameters ****************************
  
 number of  electrons                           :  384.0    
 net charge of system                           :  0.000    
 net spin   of system                           :  0.000    
 number of  up  spins                           :  192.0    
 number of down spins                           :  192.0    
 treating system as non-spin-polarized
 number of bands                                :        192

 ********************* Electronic Minimization Parameters **********************
  
 Method: Treating system as non-metallic,
         and number of  SD  steps               :          1
         and number of  CG  steps               :          4
  
 total energy / atom convergence tol.           : 0.1000E-11   eV
 max force / atom convergence tol.              : ignored
 convergence tolerance window                   :          3   cycles
 max. number of SCF cycles                      :         60
 periodic dipole correction                     : NONE

 *********************** Population Analysis Parameters ************************
  
 Population analysis with cutoff                :  3.000       A

 ********************** Geometry Optimization Parameters ***********************
  
 optimization method                            : BFGS
 variable cell method                           : fixed basis quality
 max. number of steps                           :        300
 estimated bulk modulus                         :  500.0       GPa
 estimated <frequency>                          :  1668.       cm-1
 geom line minimiser                            : on
 with line minimiser tolerance                  :     0.4000
 total energy convergence tolerance             : 0.2000E-04   eV/atom
        max ionic |force| tolerance             : 0.1000E-03   eV/A
 max ionic |displacement| tolerance             : 0.1000E-02   A
   max |stress component| tolerance             : 0.1000E-01   GPa
 convergence tolerance window                   :          2   steps
 backup results every                           :      80000   seconds

 *******************************************************************************
  

                           -------------------------------
                                      Unit Cell
                           -------------------------------
        Real Lattice(A)                      Reciprocal Lattice(1/A)
   5.3675800   0.0000000   0.0000000        1.1705807   0.0000000   0.0000000
   0.0000000   5.2862700   0.0000000        0.0000000   1.1885858   0.0000000
   0.0000000   0.0000000  18.8781600        0.0000000   0.0000000   0.3328283

                       Lattice parameters(A)       Cell Angles
                    a =    5.367580          alpha =   90.000000
                    b =    5.286270          beta  =   90.000000
                    c =   18.878160          gamma =   90.000000

                       Current cell volume =  535.657919       A**3

                           -------------------------------
                                     Cell Contents
                           -------------------------------
                         Total number of ions in cell =   60
                      Total number of species in cell =    4
                        Max number of any one species =   28

            xxxxxxxxxxxxxxxxxxxxxxxxxxxxxxxxxxxxxxxxxxxxxxxxxxxxxxxxxxxx
            x  Element    Atom        Fractional coordinates of atoms  x
            x            Number           u          v          w      x
            x----------------------------------------------------------x
            x  O            1         0.175460   0.250000   0.000000   x 
            x  O            2         0.824540   0.750000   0.000000   x 
            x  O            3         0.675460   0.250000   0.500000   x 
            x  O            4         0.324540   0.750000   0.500000   x 
            x  O            5         0.306210   0.250000   0.803550   x 
            x  O            6         0.693790   0.750000   0.803550   x 
            x  O            7         0.306210   0.250000   0.196450   x 
            x  O            8         0.693790   0.750000   0.196450   x 
            x  O            9         0.806210   0.250000   0.303550   x 
            x  O           10         0.193790   0.750000   0.303550   x 
            x  O           11         0.806210   0.250000   0.696450   x 
            x  O           12         0.193790   0.750000   0.696450   x 
            x  O           13        -0.000000   0.000000   0.417320   x 
            x  O           14        -0.000000   0.500000   0.582680   x 
            x  O           15        -0.000000   0.000000   0.582680   x 
            x  O           16        -0.000000   0.500000   0.417320   x 
            x  O           17         0.500000   0.000000   0.917320   x 
            x  O           18         0.500000   0.500000   0.082680   x 
            x  O           19         0.500000   0.000000   0.082680   x 
            x  O           20         0.500000   0.500000   0.917320   x 
            x  O           21        -0.000000   0.000000   0.112430   x 
            x  O           22        -0.000000   0.500000   0.887570   x 
            x  O           23        -0.000000   0.000000   0.887570   x 
            x  O           24        -0.000000   0.500000   0.112430   x 
            x  O           25         0.500000   0.000000   0.612430   x 
            x  O           26         0.500000   0.500000   0.387570   x 
            x  O           27         0.500000   0.000000   0.387570   x 
            x  O           28         0.500000   0.500000   0.612430   x 
            x  Ca           1         0.743840   0.250000   0.000000   x 
            x  Ca           2         0.256160   0.750000   0.000000   x 
            x  Ca           3         0.243840   0.250000   0.500000   x 
            x  Ca           4         0.756160   0.750000   0.500000   x 
            x  Ca           5         0.237070   0.250000   0.686190   x 
            x  Ca           6         0.762930   0.750000   0.686190   x 
            x  Ca           7         0.237070   0.250000   0.313810   x 
            x  Ca           8         0.762930   0.750000   0.313810   x 
            x  Ca           9         0.737070   0.250000   0.186190   x 
            x  Ca          10         0.262930   0.750000   0.186190   x 
            x  Ca          11         0.737070   0.250000   0.813810   x 
            x  Ca          12         0.262930   0.750000   0.813810   x 
            x  Ti           1         0.248260   0.250000   0.901210   x 
            x  Ti           2         0.751740   0.750000   0.901210   x 
            x  Ti           3         0.248260   0.250000   0.098790   x 
            x  Ti           4         0.751740   0.750000   0.098790   x 
            x  Ti           5         0.748260   0.250000   0.401210   x 
            x  Ti           6         0.251740   0.750000   0.401210   x 
            x  Ti           7         0.748260   0.250000   0.598790   x 
            x  Ti           8         0.251740   0.750000   0.598790   x 
            x  Sr           1         0.743840   0.250000   0.000000   x 
            x  Sr           2         0.256160   0.750000   0.000000   x 
            x  Sr           3         0.243840   0.250000   0.500000   x 
            x  Sr           4         0.756160   0.750000   0.500000   x 
            x  Sr           5         0.237070   0.250000   0.686190   x 
            x  Sr           6         0.762930   0.750000   0.686190   x 
            x  Sr           7         0.237070   0.250000   0.313810   x 
            x  Sr           8         0.762930   0.750000   0.313810   x 
            x  Sr           9         0.737070   0.250000   0.186190   x 
            x  Sr          10         0.262930   0.750000   0.186190   x 
            x  Sr          11         0.737070   0.250000   0.813810   x 
            x  Sr          12         0.262930   0.750000   0.813810   x 
            xxxxxxxxxxxxxxxxxxxxxxxxxxxxxxxxxxxxxxxxxxxxxxxxxxxxxxxxxxxx

  
        xxxxxxxxxxxxxxxxxxxxxxxxxxxxxxxxxxxxxxxxxxxxxxxxxxxxxxxxxxxxxxxxxxxx
        x  Mixture   Fractional coordinates of atoms  Components  Weights  x
        x   atoms       u          v          w                            x
        x------------------------------------------------------------------x
        x    1        0.743840   0.250000   0.000000   Ca        0.716600  x
        x                                              Sr        0.283400  x
        x    2        0.256160   0.750000   0.000000   Ca        0.716600  x
        x                                              Sr        0.283400  x
        x    3        0.243840   0.250000   0.500000   Ca        0.716600  x
        x                                              Sr        0.283400  x
        x    4        0.756160   0.750000   0.500000   Ca        0.716600  x
        x                                              Sr        0.283400  x
        x    5        0.237070   0.250000   0.686190   Ca        0.716600  x
        x                                              Sr        0.283400  x
        x    6        0.762930   0.750000   0.686190   Ca        0.716600  x
        x                                              Sr        0.283400  x
        x    7        0.237070   0.250000   0.313810   Ca        0.716600  x
        x                                              Sr        0.283400  x
        x    8        0.762930   0.750000   0.313810   Ca        0.716600  x
        x                                              Sr        0.283400  x
        x    9        0.737070   0.250000   0.186190   Ca        0.716600  x
        x                                              Sr        0.283400  x
        x   10        0.262930   0.750000   0.186190   Ca        0.716600  x
        x                                              Sr        0.283400  x
        x   11        0.737070   0.250000   0.813810   Ca        0.716600  x
        x                                              Sr        0.283400  x
        x   12        0.262930   0.750000   0.813810   Ca        0.716600  x
        x                                              Sr        0.283400  x
        xxxxxxxxxxxxxxxxxxxxxxxxxxxxxxxxxxxxxxxxxxxxxxxxxxxxxxxxxxxxxxxxxxxx



                         No user defined ionic velocities

                           -------------------------------
                                   Details of Species
                           -------------------------------

                               Mass of species in AMU
                                    O   15.9994000
                                    Ca   40.0780000
                                    Ti   47.8670000
                                    Sr   87.6200000

                          Electric Quadrupole Moment (Barn)
                                    O   -0.0255800 Isotope 17
                                    Ca   -0.0408000 Isotope 43
                                    Ti    0.3020000 Isotope 47
                                    Sr    0.3050000 Isotope 87

                          Files used for pseudopotentials:
                                    O O_OTF_E1650_PBEsol_NC.usp
                                    Ca Ca_OTF_E1650_PBEsol_NC.usp
                                    Ti Ti_OTF_E1650_PBEsol_NC.usp
                                    Sr Sr_OTF_E1650_PBEsol_NC.usp

                           -------------------------------
                              k-Points For BZ Sampling
                           -------------------------------
                       MP grid size for SCF calculation is  5  5  1
                         Number of kpoints used =           9

             +++++++++++++++++++++++++++++++++++++++++++++++++++++++
             +  Number       Fractional coordinates        Weight  +
             +-----------------------------------------------------+
             +     1  -0.300000  -0.100000  -0.500000   0.1600000  +
             +     2  -0.300000   0.300000  -0.500000   0.1600000  +
             +     3  -0.100000   0.100000  -0.500000   0.1600000  +
             +     4  -0.100000   0.300000  -0.500000   0.1600000  +
             +     5  -0.100000  -0.500000  -0.500000   0.0800000  +
             +     6   0.300000  -0.500000  -0.500000   0.0800000  +
             +     7  -0.500000  -0.100000  -0.500000   0.0800000  +
             +     8  -0.500000   0.300000  -0.500000   0.0800000  +
             +     9  -0.500000  -0.500000  -0.500000   0.0400000  +
             +++++++++++++++++++++++++++++++++++++++++++++++++++++++

                           -------------------------------
                               Symmetry and Constraints
                           -------------------------------

                      Cell is a supercell containing 2 primitive cells
                      Maximum deviation from symmetry = 0.733564E-14     ANG

                      Number of symmetry operations   =          16
                      Number of ionic constraints     =           3
                      Point group of crystal =     8: D2h, mmm, 2/m 2/m 2/m

             Set iprint > 1 for details on symmetry rotations/translations

                         Centre of mass is constrained
             Set iprint > 1 for details of linear ionic constraints

                         Number of cell constraints= 3
                         Cell constraints are:  1 2 3 0 0 0

                         External pressure/stress (GPa)
                          0.00000   0.00000   0.00000
                                    0.00000   0.00000
                                              0.00000
  
+---------------- MEMORY AND SCRATCH DISK ESTIMATES PER PROCESS --------------+
|                                                     Memory          Disk    |
| Model and support data                              577.3 MB         0.0 MB |
| Electronic energy minimisation requirements         673.6 MB         0.0 MB |
|                                               ----------------------------- |
| Approx. total storage required per process         1250.9 MB         0.0 MB |
|                                                                             |
| Requirements will fluctuate during execution and may exceed these estimates |
+-----------------------------------------------------------------------------+
Calculating finite basis set correction with  3 cut-off energies.
Calculating total energy with cut-off of 1390.000eV.
------------------------------------------------------------------------ <-- SCF
SCF loop      Energy                           Energy gain       Timer   <-- SCF
                                               per atom          (sec)   <-- SCF
------------------------------------------------------------------------ <-- SCF
Initial  -9.49927029E+003                                        103.94  <-- SCF
      1  -2.91838922E+004                    4.10096291E+002     394.83  <-- SCF
      2  -3.59269518E+004                    1.40480407E+002     658.51  <-- SCF
      3  -3.64445115E+004                    1.07824940E+001     908.30  <-- SCF
      4  -3.64928032E+004                    1.00607777E+000    1157.82  <-- SCF
      5  -3.65016180E+004                    1.83641704E-001    1407.30  <-- SCF
      6  -3.65040302E+004                    5.02537045E-002    1657.11  <-- SCF
      7  -3.65047397E+004                    1.47807020E-002    1906.83  <-- SCF
      8  -3.65049220E+004                    3.79844791E-003    2156.82  <-- SCF
      9  -3.65049644E+004                    8.83636389E-004    2406.64  <-- SCF
     10  -3.65049742E+004                    2.03516560E-004    2656.29  <-- SCF
     11  -3.65049765E+004                    4.81976163E-005    2906.08  <-- SCF
     12  -3.65049771E+004                    1.17582897E-005    3155.68  <-- SCF
     13  -3.65049772E+004                    2.95063255E-006    3405.45  <-- SCF
     14  -3.65049772E+004                    7.58788004E-007    3655.43  <-- SCF
     15  -3.65049773E+004                    1.99510147E-007    3905.30  <-- SCF
     16  -3.65049773E+004                    5.34711768E-008    4155.32  <-- SCF
     17  -3.65049773E+004                    1.46027112E-008    4404.88  <-- SCF
     18  -3.65049773E+004                    4.03814822E-009    4654.62  <-- SCF
     19  -3.65049773E+004                    1.15506404E-009    4918.36  <-- SCF
     20  -3.65049773E+004                    3.11291112E-010    5182.19  <-- SCF
     21  -3.65049773E+004                    8.14641750E-011    5500.87  <-- SCF
     22  -3.65049773E+004                    1.67568714E-011    5887.84  <-- SCF
     23  -3.65049773E+004                    3.99586934E-012    6316.40  <-- SCF
     24  -3.65049773E+004                    3.35137429E-012    6704.36  <-- SCF
     25  -3.65049773E+004                    0.00000000E+000    7159.37  <-- SCF
     26  -3.65049773E+004                    1.28899011E-013    7601.16  <-- SCF
------------------------------------------------------------------------ <-- SCF
 
Final energy =  -36504.97725725     eV
(energy not corrected for finite basis set)
 
Calculating total energy with cut-off of 1395.000eV.
------------------------------------------------------------------------ <-- SCF
SCF loop      Energy                           Energy gain       Timer   <-- SCF
                                               per atom          (sec)   <-- SCF
------------------------------------------------------------------------ <-- SCF
Initial  -3.65049773E+004                                       7704.10  <-- SCF
      1  -3.65049783E+004                    2.21271881E-005    7982.96  <-- SCF
      2  -3.65049783E+004                    2.12683368E-011    8317.77  <-- SCF
      3  -3.65049783E+004                    1.67568714E-012    8762.86  <-- SCF
      4  -3.65049783E+004                    0.00000000E+000    9221.65  <-- SCF
      5  -3.65049783E+004                    0.00000000E+000    9680.60  <-- SCF
------------------------------------------------------------------------ <-- SCF
 
Final energy =  -36504.97831936     eV
(energy not corrected for finite basis set)
 
Calculating total energy with cut-off of 1400.000eV.
------------------------------------------------------------------------ <-- SCF
SCF loop      Energy                           Energy gain       Timer   <-- SCF
                                               per atom          (sec)   <-- SCF
------------------------------------------------------------------------ <-- SCF
Initial  -3.65049783E+004                                       9784.47  <-- SCF
      1  -3.65049795E+004                    2.37963677E-005   10050.04  <-- SCF
      2  -3.65049795E+004                    1.01830219E-011   10399.77  <-- SCF
      3  -3.65049795E+004                    1.16009110E-012   10845.83  <-- SCF
      4  -3.65049795E+004                    0.00000000E+000   11305.48  <-- SCF
      5  -3.65049795E+004                    0.00000000E+000   11765.75  <-- SCF
------------------------------------------------------------------------ <-- SCF
 
Final energy =  -36504.97946159     eV
(energy not corrected for finite basis set)
 
 For future reference: finite basis dEtot/dlog(Ecut) =      -0.314371eV
 Total energy corrected for finite basis set =  -36504.979487 eV
 
+---------------- MEMORY AND SCRATCH DISK ESTIMATES PER PROCESS --------------+
|                                                     Memory          Disk    |
| Model and support data                              577.3 MB         0.0 MB |
| Electronic energy minimisation requirements         673.6 MB         0.0 MB |
| Geometry minimisation requirements                  781.9 MB         0.0 MB |
|                                               ----------------------------- |
| Approx. total storage required per process         2032.8 MB         0.0 MB |
|                                                                             |
| Requirements will fluctuate during execution and may exceed these estimates |
+-----------------------------------------------------------------------------+
 

 *********************************** Forces ***********************************
 *                                                                            *
 *                        Cartesian components (eV/A)                         *
 * -------------------------------------------------------------------------- *
 *                   x                    y                    z              *
 *                                                                            *
 * O         1     -0.11012              0.00000              0.00000         *
 * O         2      0.11012              0.00000              0.00000         *
 * O         3     -0.11012              0.00000              0.00000         *
 * O         4      0.11012              0.00000              0.00000         *
 * O         5      0.27305              0.00000             -1.04659         *
 * O         6     -0.27305              0.00000             -1.04659         *
 * O         7      0.27305              0.00000              1.04659         *
 * O         8     -0.27305              0.00000              1.04659         *
 * O         9      0.27305              0.00000             -1.04659         *
 * O        10     -0.27305              0.00000             -1.04659         *
 * O        11      0.27305              0.00000              1.04659         *
 * O        12     -0.27305              0.00000              1.04659         *
 * O        13      0.00000              0.00000             -0.16011         *
 * O        14      0.00000              0.00000              0.16011         *
 * O        15      0.00000              0.00000              0.16011         *
 * O        16      0.00000              0.00000             -0.16011         *
 * O        17      0.00000              0.00000             -0.16011         *
 * O        18      0.00000              0.00000              0.16011         *
 * O        19      0.00000              0.00000              0.16011         *
 * O        20      0.00000              0.00000             -0.16011         *
 * O        21      0.00000              0.00000             -0.18310         *
 * O        22      0.00000              0.00000              0.18310         *
 * O        23      0.00000              0.00000              0.18310         *
 * O        24      0.00000              0.00000             -0.18310         *
 * O        25      0.00000              0.00000             -0.18310         *
 * O        26      0.00000              0.00000              0.18310         *
 * O        27      0.00000              0.00000              0.18310         *
 * O        28      0.00000              0.00000             -0.18310         *
 * Ca        1      0.12004 (mixed)      0.00000 (mixed)      0.00000 (mixed) *
 * Ca        2     -0.12004 (mixed)      0.00000 (mixed)      0.00000 (mixed) *
 * Ca        3      0.12004 (mixed)      0.00000 (mixed)      0.00000 (mixed) *
 * Ca        4     -0.12004 (mixed)      0.00000 (mixed)      0.00000 (mixed) *
 * Ca        5      0.10905 (mixed)      0.00000 (mixed)     -0.12197 (mixed) *
 * Ca        6     -0.10905 (mixed)     -0.00000 (mixed)     -0.12197 (mixed) *
 * Ca        7      0.10905 (mixed)      0.00000 (mixed)      0.12197 (mixed) *
 * Ca        8     -0.10905 (mixed)      0.00000 (mixed)      0.12197 (mixed) *
 * Ca        9      0.10905 (mixed)      0.00000 (mixed)     -0.12197 (mixed) *
 * Ca       10     -0.10905 (mixed)     -0.00000 (mixed)     -0.12197 (mixed) *
 * Ca       11      0.10905 (mixed)      0.00000 (mixed)      0.12197 (mixed) *
 * Ca       12     -0.10905 (mixed)     -0.00000 (mixed)      0.12197 (mixed) *
 * Ti        1     -0.22561              0.00000              0.16227         *
 * Ti        2      0.22561              0.00000              0.16227         *
 * Ti        3     -0.22561              0.00000             -0.16227         *
 * Ti        4      0.22561              0.00000             -0.16227         *
 * Ti        5     -0.22561              0.00000              0.16227         *
 * Ti        6      0.22561              0.00000              0.16227         *
 * Ti        7     -0.22561              0.00000             -0.16227         *
 * Ti        8      0.22561              0.00000             -0.16227         *
 * Sr        1      0.12004 (mixed)      0.00000 (mixed)      0.00000 (mixed) *
 * Sr        2     -0.12004 (mixed)      0.00000 (mixed)      0.00000 (mixed) *
 * Sr        3      0.12004 (mixed)      0.00000 (mixed)      0.00000 (mixed) *
 * Sr        4     -0.12004 (mixed)      0.00000 (mixed)      0.00000 (mixed) *
 * Sr        5      0.10905 (mixed)      0.00000 (mixed)     -0.12197 (mixed) *
 * Sr        6     -0.10905 (mixed)     -0.00000 (mixed)     -0.12197 (mixed) *
 * Sr        7      0.10905 (mixed)      0.00000 (mixed)      0.12197 (mixed) *
 * Sr        8     -0.10905 (mixed)      0.00000 (mixed)      0.12197 (mixed) *
 * Sr        9      0.10905 (mixed)      0.00000 (mixed)     -0.12197 (mixed) *
 * Sr       10     -0.10905 (mixed)     -0.00000 (mixed)     -0.12197 (mixed) *
 * Sr       11      0.10905 (mixed)      0.00000 (mixed)      0.12197 (mixed) *
 * Sr       12     -0.10905 (mixed)     -0.00000 (mixed)      0.12197 (mixed) *
 *                                                                            *
 ******************************************************************************

 ***************** Stress Tensor *****************
 *                                               *
 *          Cartesian components (GPa)           *
 * --------------------------------------------- *
 *             x             y             z     *
 *                                               *
 *  x    -16.149345      0.000000      0.000000  *
 *  y      0.000000    -14.536801      0.000000  *
 *  z      0.000000      0.000000    -18.977338  *
 *                                               *
 *  Pressure:   16.5545                          *
 *                                               *
 *************************************************
 BFGS: finished iteration     0 with enthalpy= -3.65049795E+004 eV
  
 +-----------+-----------------+-----------------+------------+-----+ <-- BFGS
 | Parameter |      value      |    tolerance    |    units   | OK? | <-- BFGS
 +-----------+-----------------+-----------------+------------+-----+ <-- BFGS
 |  dE/ion   |   0.000000E+000 |   2.000000E-005 |         eV | No  | <-- BFGS
 |  |F|max   |   1.081622E+000 |   1.000000E-004 |       eV/A | No  | <-- BFGS
 |  |dR|max  |   0.000000E+000 |   1.000000E-003 |          A | No  | <-- BFGS
 |   Smax    |   1.897734E+001 |   1.000000E-002 |        GPa | No  | <-- BFGS
 +-----------+-----------------+-----------------+------------+-----+ <-- BFGS
  

================================================================================
 Starting BFGS iteration          1 ...
================================================================================
  
 +------------+-------------+-------------+-----------------+ <-- min BFGS
 |    Step    |   lambda    |   F.delta   |    enthalpy     | <-- min BFGS
 +------------+-------------+-------------+-----------------+ <-- min BFGS
 |  previous  |    0.000000 |    0.069462 |   -36504.979487 | <-- min BFGS
 +------------+-------------+-------------+-----------------+ <-- min BFGS
  

--------------------------------------------------------------------------------
 BFGS: starting iteration         1 with trial guess (lambda=  1.000000)
--------------------------------------------------------------------------------
 
+---------------- MEMORY AND SCRATCH DISK ESTIMATES PER PROCESS --------------+
|                                                     Memory          Disk    |
| Model and support data                              586.2 MB         0.0 MB |
| Electronic energy minimisation requirements         692.2 MB         0.0 MB |
| Geometry minimisation requirements                  803.5 MB         0.0 MB |
|                                               ----------------------------- |
| Approx. total storage required per process         2081.9 MB         0.0 MB |
|                                                                             |
| Requirements will fluctuate during execution and may exceed these estimates |
+-----------------------------------------------------------------------------+
 

                           -------------------------------
                                      Unit Cell
                           -------------------------------
        Real Lattice(A)              Reciprocal Lattice(1/A)
   5.4253686   0.0000000   0.0000000        1.1581122   0.0000000   0.0000000
   0.0000000   5.3375003   0.0000000        0.0000000   1.1771775   0.0000000
   0.0000000   0.0000000  19.1169981        0.0000000   0.0000000   0.3286701

                       Lattice parameters(A)       Cell Angles
                    a =    5.425369          alpha =   90.000000
                    b =    5.337500          beta  =   90.000000
                    c =   19.116998          gamma =   90.000000

                Current cell volume =  553.588246 A**3

                           -------------------------------
                                     Cell Contents
                           -------------------------------

            xxxxxxxxxxxxxxxxxxxxxxxxxxxxxxxxxxxxxxxxxxxxxxxxxxxxxxxxxxxx
            x  Element    Atom        Fractional coordinates of atoms  x
            x            Number           u          v          w      x
            x----------------------------------------------------------x
            x  O            1         0.175395   0.250000   0.000000   x
            x  O            2         0.824605   0.750000   0.000000   x
            x  O            3         0.675395   0.250000   0.500000   x
            x  O            4         0.324605   0.750000   0.500000   x
            x  O            5         0.306372   0.250000   0.803373   x
            x  O            6         0.693628   0.750000   0.803373   x
            x  O            7         0.306372   0.250000   0.196627   x
            x  O            8         0.693628   0.750000   0.196627   x
            x  O            9         0.806372   0.250000   0.303373   x
            x  O           10         0.193628   0.750000   0.303373   x
            x  O           11         0.806372   0.250000   0.696627   x
            x  O           12         0.193628   0.750000   0.696627   x
            x  O           13        -0.000000   0.000000   0.417293   x
            x  O           14        -0.000000   0.500000   0.582707   x
            x  O           15        -0.000000   0.000000   0.582707   x
            x  O           16        -0.000000   0.500000   0.417293   x
            x  O           17         0.500000   0.000000   0.917293   x
            x  O           18         0.500000   0.500000   0.082707   x
            x  O           19         0.500000   0.000000   0.082707   x
            x  O           20         0.500000   0.500000   0.917293   x
            x  O           21        -0.000000   0.000000   0.112399   x
            x  O           22        -0.000000   0.500000   0.887601   x
            x  O           23        -0.000000   0.000000   0.887601   x
            x  O           24        -0.000000   0.500000   0.112399   x
            x  O           25         0.500000   0.000000   0.612399   x
            x  O           26         0.500000   0.500000   0.387601   x
            x  O           27         0.500000   0.000000   0.387601   x
            x  O           28         0.500000   0.500000   0.612399   x
            x  Ca           1         0.743911   0.250000   0.000000   x
            x  Ca           2         0.256089   0.750000   0.000000   x
            x  Ca           3         0.243911   0.250000   0.500000   x
            x  Ca           4         0.756089   0.750000   0.500000   x
            x  Ca           5         0.237135   0.250000   0.686169   x
            x  Ca           6         0.762865   0.750000   0.686169   x
            x  Ca           7         0.237135   0.250000   0.313831   x
            x  Ca           8         0.762865   0.750000   0.313831   x
            x  Ca           9         0.737135   0.250000   0.186169   x
            x  Ca          10         0.262865   0.750000   0.186169   x
            x  Ca          11         0.737135   0.250000   0.813831   x
            x  Ca          12         0.262865   0.750000   0.813831   x
            x  Ti           1         0.248126   0.250000   0.901237   x
            x  Ti           2         0.751874   0.750000   0.901237   x
            x  Ti           3         0.248126   0.250000   0.098763   x
            x  Ti           4         0.751874   0.750000   0.098763   x
            x  Ti           5         0.748126   0.250000   0.401237   x
            x  Ti           6         0.251874   0.750000   0.401237   x
            x  Ti           7         0.748126   0.250000   0.598763   x
            x  Ti           8         0.251874   0.750000   0.598763   x
            x  Sr           1         0.743911   0.250000   0.000000   x
            x  Sr           2         0.256089   0.750000   0.000000   x
            x  Sr           3         0.243911   0.250000   0.500000   x
            x  Sr           4         0.756089   0.750000   0.500000   x
            x  Sr           5         0.237135   0.250000   0.686169   x
            x  Sr           6         0.762865   0.750000   0.686169   x
            x  Sr           7         0.237135   0.250000   0.313831   x
            x  Sr           8         0.762865   0.750000   0.313831   x
            x  Sr           9         0.737135   0.250000   0.186169   x
            x  Sr          10         0.262865   0.750000   0.186169   x
            x  Sr          11         0.737135   0.250000   0.813831   x
            x  Sr          12         0.262865   0.750000   0.813831   x
            xxxxxxxxxxxxxxxxxxxxxxxxxxxxxxxxxxxxxxxxxxxxxxxxxxxxxxxxxxxx

  
        xxxxxxxxxxxxxxxxxxxxxxxxxxxxxxxxxxxxxxxxxxxxxxxxxxxxxxxxxxxxxxxxxxxx
        x  Mixture   Fractional coordinates of atoms  Components  Weights  x
        x   atoms       u          v          w                            x
        x------------------------------------------------------------------x
        x    1        0.743911   0.250000   0.000000   Ca        0.716600  x
        x                                              Sr        0.283400  x
        x    2        0.256089   0.750000   0.000000   Ca        0.716600  x
        x                                              Sr        0.283400  x
        x    3        0.243911   0.250000   0.500000   Ca        0.716600  x
        x                                              Sr        0.283400  x
        x    4        0.756089   0.750000   0.500000   Ca        0.716600  x
        x                                              Sr        0.283400  x
        x    5        0.237135   0.250000   0.686169   Ca        0.716600  x
        x                                              Sr        0.283400  x
        x    6        0.762865   0.750000   0.686169   Ca        0.716600  x
        x                                              Sr        0.283400  x
        x    7        0.237135   0.250000   0.313831   Ca        0.716600  x
        x                                              Sr        0.283400  x
        x    8        0.762865   0.750000   0.313831   Ca        0.716600  x
        x                                              Sr        0.283400  x
        x    9        0.737135   0.250000   0.186169   Ca        0.716600  x
        x                                              Sr        0.283400  x
        x   10        0.262865   0.750000   0.186169   Ca        0.716600  x
        x                                              Sr        0.283400  x
        x   11        0.737135   0.250000   0.813831   Ca        0.716600  x
        x                                              Sr        0.283400  x
        x   12        0.262865   0.750000   0.813831   Ca        0.716600  x
        x                                              Sr        0.283400  x
        xxxxxxxxxxxxxxxxxxxxxxxxxxxxxxxxxxxxxxxxxxxxxxxxxxxxxxxxxxxxxxxxxxxx


------------------------------------------------------------------------ <-- SCF
SCF loop      Energy                           Energy gain       Timer   <-- SCF
                                               per atom          (sec)   <-- SCF
------------------------------------------------------------------------ <-- SCF
Initial  -3.65009863E+004                                      12045.98  <-- SCF
      1  -3.65064478E+004                    1.13779744E-001   12299.71  <-- SCF
      2  -3.65064505E+004                    5.78417140E-005   12554.08  <-- SCF
      3  -3.65064507E+004                    3.39982188E-006   12808.53  <-- SCF
      4  -3.65064507E+004                    3.86929438E-007   13062.85  <-- SCF
      5  -3.65064507E+004                    6.32168443E-008   13331.18  <-- SCF
      6  -3.65064507E+004                    1.15037211E-008   13585.69  <-- SCF
      7  -3.65064507E+004                    2.34609090E-009   13854.26  <-- SCF
      8  -3.65064507E+004                    5.34801997E-010   14122.81  <-- SCF
      9  -3.65064507E+004                    1.04150401E-010   14405.54  <-- SCF
     10  -3.65064507E+004                    5.27196955E-011   14743.75  <-- SCF
     11  -3.65064507E+004                    2.57798022E-013   15193.29  <-- SCF
     12  -3.65064507E+004                    1.28899011E-013   15642.56  <-- SCF
------------------------------------------------------------------------ <-- SCF
 
Final energy =  -36506.45073363     eV
(energy not corrected for finite basis set)
 

 *********************************** Forces ***********************************
 *                                                                            *
 *                        Cartesian components (eV/A)                         *
 * -------------------------------------------------------------------------- *
 *                   x                    y                    z              *
 *                                                                            *
 * O         1     -0.01939              0.00000              0.00000         *
 * O         2      0.01939              0.00000              0.00000         *
 * O         3     -0.01939              0.00000              0.00000         *
 * O         4      0.01939              0.00000              0.00000         *
 * O         5      0.23295             -0.00000             -0.56668         *
 * O         6     -0.23295              0.00000             -0.56668         *
 * O         7      0.23295              0.00000              0.56668         *
 * O         8     -0.23295              0.00000              0.56668         *
 * O         9      0.23295             -0.00000             -0.56668         *
 * O        10     -0.23295              0.00000             -0.56668         *
 * O        11      0.23295              0.00000              0.56668         *
 * O        12     -0.23295              0.00000              0.56668         *
 * O        13      0.00000              0.00000             -0.21007         *
 * O        14      0.00000              0.00000              0.21007         *
 * O        15      0.00000              0.00000              0.21007         *
 * O        16      0.00000              0.00000             -0.21007         *
 * O        17      0.00000              0.00000             -0.21007         *
 * O        18      0.00000              0.00000              0.21007         *
 * O        19      0.00000              0.00000              0.21007         *
 * O        20      0.00000              0.00000             -0.21007         *
 * O        21      0.00000              0.00000             -0.19700         *
 * O        22      0.00000              0.00000              0.19700         *
 * O        23      0.00000              0.00000              0.19700         *
 * O        24      0.00000              0.00000             -0.19700         *
 * O        25      0.00000              0.00000             -0.19700         *
 * O        26      0.00000              0.00000              0.19700         *
 * O        27      0.00000              0.00000              0.19700         *
 * O        28      0.00000              0.00000             -0.19700         *
 * Ca        1      0.07603 (mixed)      0.00000 (mixed)      0.00000 (mixed) *
 * Ca        2     -0.07603 (mixed)      0.00000 (mixed)      0.00000 (mixed) *
 * Ca        3      0.07603 (mixed)      0.00000 (mixed)      0.00000 (mixed) *
 * Ca        4     -0.07603 (mixed)      0.00000 (mixed)      0.00000 (mixed) *
 * Ca        5      0.07289 (mixed)      0.00000 (mixed)     -0.09244 (mixed) *
 * Ca        6     -0.07289 (mixed)      0.00000 (mixed)     -0.09244 (mixed) *
 * Ca        7      0.07289 (mixed)      0.00000 (mixed)      0.09244 (mixed) *
 * Ca        8     -0.07289 (mixed)      0.00000 (mixed)      0.09244 (mixed) *
 * Ca        9      0.07289 (mixed)      0.00000 (mixed)     -0.09244 (mixed) *
 * Ca       10     -0.07289 (mixed)     -0.00000 (mixed)     -0.09244 (mixed) *
 * Ca       11      0.07289 (mixed)      0.00000 (mixed)      0.09244 (mixed) *
 * Ca       12     -0.07289 (mixed)      0.00000 (mixed)      0.09244 (mixed) *
 * Ti        1     -0.20545              0.00000              0.03382         *
 * Ti        2      0.20545              0.00000              0.03382         *
 * Ti        3     -0.20545              0.00000             -0.03382         *
 * Ti        4      0.20545              0.00000             -0.03382         *
 * Ti        5     -0.20545              0.00000              0.03382         *
 * Ti        6      0.20545              0.00000              0.03382         *
 * Ti        7     -0.20545              0.00000             -0.03382         *
 * Ti        8      0.20545              0.00000             -0.03382         *
 * Sr        1      0.07603 (mixed)      0.00000 (mixed)      0.00000 (mixed) *
 * Sr        2     -0.07603 (mixed)      0.00000 (mixed)      0.00000 (mixed) *
 * Sr        3      0.07603 (mixed)      0.00000 (mixed)      0.00000 (mixed) *
 * Sr        4     -0.07603 (mixed)      0.00000 (mixed)      0.00000 (mixed) *
 * Sr        5      0.07289 (mixed)      0.00000 (mixed)     -0.09244 (mixed) *
 * Sr        6     -0.07289 (mixed)      0.00000 (mixed)     -0.09244 (mixed) *
 * Sr        7      0.07289 (mixed)      0.00000 (mixed)      0.09244 (mixed) *
 * Sr        8     -0.07289 (mixed)      0.00000 (mixed)      0.09244 (mixed) *
 * Sr        9      0.07289 (mixed)      0.00000 (mixed)     -0.09244 (mixed) *
 * Sr       10     -0.07289 (mixed)     -0.00000 (mixed)     -0.09244 (mixed) *
 * Sr       11      0.07289 (mixed)      0.00000 (mixed)      0.09244 (mixed) *
 * Sr       12     -0.07289 (mixed)      0.00000 (mixed)      0.09244 (mixed) *
 *                                                                            *
 ******************************************************************************

 ***************** Stress Tensor *****************
 *                                               *
 *          Cartesian components (GPa)           *
 * --------------------------------------------- *
 *             x             y             z     *
 *                                               *
 *  x     -8.764706      0.000000      0.000000  *
 *  y      0.000000     -8.154485      0.000000  *
 *  z      0.000000      0.000000    -10.520692  *
 *                                               *
 *  Pressure:    9.1466                          *
 *                                               *
 *************************************************
  
 +------------+-------------+-------------+-----------------+ <-- min BFGS
 |    Step    |   lambda    |   F.delta   |    enthalpy     | <-- min BFGS
 +------------+-------------+-------------+-----------------+ <-- min BFGS
 |  previous  |    0.000000 |    0.069462 |   -36504.979487 | <-- min BFGS
 | trial step |    1.000000 |    0.039266 |   -36506.450741 | <-- min BFGS
 +------------+-------------+-------------+-----------------+ <-- min BFGS
  
 BFGS: finished iteration     1 with enthalpy= -3.65064507E+004 eV
  
 +-----------+-----------------+-----------------+------------+-----+ <-- BFGS
 | Parameter |      value      |    tolerance    |    units   | OK? | <-- BFGS
 +-----------+-----------------+-----------------+------------+-----+ <-- BFGS
 |  dE/ion   |   2.452090E-002 |   2.000000E-005 |         eV | No  | <-- BFGS
 |  |F|max   |   6.126943E-001 |   1.000000E-004 |       eV/A | No  | <-- BFGS
 |  |dR|max  |   3.487597E-003 |   1.000000E-003 |          A | No  | <-- BFGS
 |   Smax    |   1.052069E+001 |   1.000000E-002 |        GPa | No  | <-- BFGS
 +-----------+-----------------+-----------------+------------+-----+ <-- BFGS
  

================================================================================
 Starting BFGS iteration          2 ...
================================================================================
  
 +------------+-------------+-------------+-----------------+ <-- min BFGS
 |    Step    |   lambda    |   F.delta   |    enthalpy     | <-- min BFGS
 +------------+-------------+-------------+-----------------+ <-- min BFGS
 |  previous  |    0.000000 |    0.051294 |   -36506.450741 | <-- min BFGS
 +------------+-------------+-------------+-----------------+ <-- min BFGS
  

--------------------------------------------------------------------------------
 BFGS: starting iteration         2 with trial guess (lambda=  0.848985)
--------------------------------------------------------------------------------
 
+---------------- MEMORY AND SCRATCH DISK ESTIMATES PER PROCESS --------------+
|                                                     Memory          Disk    |
| Model and support data                              609.5 MB         0.0 MB |
| Electronic energy minimisation requirements         719.3 MB         0.0 MB |
| Geometry minimisation requirements                  835.3 MB         0.0 MB |
|                                               ----------------------------- |
| Approx. total storage required per process         2164.1 MB         0.0 MB |
|                                                                             |
| Requirements will fluctuate during execution and may exceed these estimates |
+-----------------------------------------------------------------------------+
 

                           -------------------------------
                                      Unit Cell
                           -------------------------------
        Real Lattice(A)              Reciprocal Lattice(1/A)
   5.4881620   0.0000000   0.0000000        1.1448615   0.0000000   0.0000000
   0.0000000   5.3950931   0.0000000        0.0000000   1.1646111   0.0000000
   0.0000000   0.0000000  19.3815867        0.0000000   0.0000000   0.3241832

                       Lattice parameters(A)       Cell Angles
                    a =    5.488162          alpha =   90.000000
                    b =    5.395093          beta  =   90.000000
                    c =   19.381587          gamma =   90.000000

                Current cell volume =  573.872216 A**3

                           -------------------------------
                                     Cell Contents
                           -------------------------------

            xxxxxxxxxxxxxxxxxxxxxxxxxxxxxxxxxxxxxxxxxxxxxxxxxxxxxxxxxxxx
            x  Element    Atom        Fractional coordinates of atoms  x
            x            Number           u          v          w      x
            x----------------------------------------------------------x
            x  O            1         0.175372   0.250000   0.000000   x
            x  O            2         0.824628   0.750000   0.000000   x
            x  O            3         0.675372   0.250000   0.500000   x
            x  O            4         0.324628   0.750000   0.500000   x
            x  O            5         0.306645   0.250000   0.803184   x
            x  O            6         0.693355   0.750000   0.803184   x
            x  O            7         0.306645   0.250000   0.196816   x
            x  O            8         0.693355   0.750000   0.196816   x
            x  O            9         0.806645   0.250000   0.303184   x
            x  O           10         0.193355   0.750000   0.303184   x
            x  O           11         0.806645   0.250000   0.696816   x
            x  O           12         0.193355   0.750000   0.696816   x
            x  O           13        -0.000000   0.000000   0.417223   x
            x  O           14        -0.000000   0.500000   0.582777   x
            x  O           15        -0.000000   0.000000   0.582777   x
            x  O           16        -0.000000   0.500000   0.417223   x
            x  O           17         0.500000   0.000000   0.917223   x
            x  O           18         0.500000   0.500000   0.082777   x
            x  O           19         0.500000   0.000000   0.082777   x
            x  O           20         0.500000   0.500000   0.917223   x
            x  O           21        -0.000000   0.000000   0.112333   x
            x  O           22        -0.000000   0.500000   0.887667   x
            x  O           23        -0.000000   0.000000   0.887667   x
            x  O           24        -0.000000   0.500000   0.112333   x
            x  O           25         0.500000   0.000000   0.612333   x
            x  O           26         0.500000   0.500000   0.387667   x
            x  O           27         0.500000   0.000000   0.387667   x
            x  O           28         0.500000   0.500000   0.612333   x
            x  Ca           1         0.744001   0.250000   0.000000   x
            x  Ca           2         0.255999   0.750000   0.000000   x
            x  Ca           3         0.244001   0.250000   0.500000   x
            x  Ca           4         0.755999   0.750000   0.500000   x
            x  Ca           5         0.237220   0.250000   0.686139   x
            x  Ca           6         0.762780   0.750000   0.686139   x
            x  Ca           7         0.237220   0.250000   0.313861   x
            x  Ca           8         0.762780   0.750000   0.313861   x
            x  Ca           9         0.737220   0.250000   0.186139   x
            x  Ca          10         0.262780   0.750000   0.186139   x
            x  Ca          11         0.737220   0.250000   0.813861   x
            x  Ca          12         0.262780   0.750000   0.813861   x
            x  Ti           1         0.247885   0.250000   0.901249   x
            x  Ti           2         0.752115   0.750000   0.901249   x
            x  Ti           3         0.247885   0.250000   0.098751   x
            x  Ti           4         0.752115   0.750000   0.098751   x
            x  Ti           5         0.747885   0.250000   0.401249   x
            x  Ti           6         0.252115   0.750000   0.401249   x
            x  Ti           7         0.747885   0.250000   0.598751   x
            x  Ti           8         0.252115   0.750000   0.598751   x
            x  Sr           1         0.744001   0.250000   0.000000   x
            x  Sr           2         0.255999   0.750000   0.000000   x
            x  Sr           3         0.244001   0.250000   0.500000   x
            x  Sr           4         0.755999   0.750000   0.500000   x
            x  Sr           5         0.237220   0.250000   0.686139   x
            x  Sr           6         0.762780   0.750000   0.686139   x
            x  Sr           7         0.237220   0.250000   0.313861   x
            x  Sr           8         0.762780   0.750000   0.313861   x
            x  Sr           9         0.737220   0.250000   0.186139   x
            x  Sr          10         0.262780   0.750000   0.186139   x
            x  Sr          11         0.737220   0.250000   0.813861   x
            x  Sr          12         0.262780   0.750000   0.813861   x
            xxxxxxxxxxxxxxxxxxxxxxxxxxxxxxxxxxxxxxxxxxxxxxxxxxxxxxxxxxxx

  
        xxxxxxxxxxxxxxxxxxxxxxxxxxxxxxxxxxxxxxxxxxxxxxxxxxxxxxxxxxxxxxxxxxxx
        x  Mixture   Fractional coordinates of atoms  Components  Weights  x
        x   atoms       u          v          w                            x
        x------------------------------------------------------------------x
        x    1        0.744001   0.250000   0.000000   Ca        0.716600  x
        x                                              Sr        0.283400  x
        x    2        0.255999   0.750000   0.000000   Ca        0.716600  x
        x                                              Sr        0.283400  x
        x    3        0.244001   0.250000   0.500000   Ca        0.716600  x
        x                                              Sr        0.283400  x
        x    4        0.755999   0.750000   0.500000   Ca        0.716600  x
        x                                              Sr        0.283400  x
        x    5        0.237220   0.250000   0.686139   Ca        0.716600  x
        x                                              Sr        0.283400  x
        x    6        0.762780   0.750000   0.686139   Ca        0.716600  x
        x                                              Sr        0.283400  x
        x    7        0.237220   0.250000   0.313861   Ca        0.716600  x
        x                                              Sr        0.283400  x
        x    8        0.762780   0.750000   0.313861   Ca        0.716600  x
        x                                              Sr        0.283400  x
        x    9        0.737220   0.250000   0.186139   Ca        0.716600  x
        x                                              Sr        0.283400  x
        x   10        0.262780   0.750000   0.186139   Ca        0.716600  x
        x                                              Sr        0.283400  x
        x   11        0.737220   0.250000   0.813861   Ca        0.716600  x
        x                                              Sr        0.283400  x
        x   12        0.262780   0.750000   0.813861   Ca        0.716600  x
        x                                              Sr        0.283400  x
        xxxxxxxxxxxxxxxxxxxxxxxxxxxxxxxxxxxxxxxxxxxxxxxxxxxxxxxxxxxxxxxxxxxx


------------------------------------------------------------------------ <-- SCF
SCF loop      Energy                           Energy gain       Timer   <-- SCF
                                               per atom          (sec)   <-- SCF
------------------------------------------------------------------------ <-- SCF
Initial  -3.65005528E+004                                      15928.90  <-- SCF
      1  -3.65071755E+004                    1.37971661E-001   16189.26  <-- SCF
      2  -3.65071789E+004                    7.26683698E-005   16450.32  <-- SCF
      3  -3.65071792E+004                    4.64881914E-006   16711.55  <-- SCF
      4  -3.65071792E+004                    5.64575348E-007   16972.82  <-- SCF
      5  -3.65071792E+004                    9.62933617E-008   17248.51  <-- SCF
      6  -3.65071792E+004                    1.82040206E-008   17509.44  <-- SCF
      7  -3.65071792E+004                    3.84544420E-009   17784.82  <-- SCF
      8  -3.65071792E+004                    8.31527521E-010   18060.65  <-- SCF
      9  -3.65071792E+004                    2.16679238E-010   18350.99  <-- SCF
     10  -3.65071792E+004                    5.05284123E-011   18684.05  <-- SCF
     11  -3.65071792E+004                    1.92059527E-011   19118.84  <-- SCF
     12  -3.65071792E+004                    1.01830219E-011   19538.85  <-- SCF
     13  -3.65071792E+004                    3.86697033E-013   19988.13  <-- SCF
     14  -3.65071792E+004                    0.00000000E+000   20465.01  <-- SCF
------------------------------------------------------------------------ <-- SCF
 
Final energy =  -36507.17919481     eV
(energy not corrected for finite basis set)
 

 *********************************** Forces ***********************************
 *                                                                            *
 *                        Cartesian components (eV/A)                         *
 * -------------------------------------------------------------------------- *
 *                   x                    y                    z              *
 *                                                                            *
 * O         1      0.06469              0.00000              0.00000         *
 * O         2     -0.06469              0.00000              0.00000         *
 * O         3      0.06469              0.00000              0.00000         *
 * O         4     -0.06469              0.00000              0.00000         *
 * O         5      0.18639              0.00000             -0.11351         *
 * O         6     -0.18639              0.00000             -0.11351         *
 * O         7      0.18639              0.00000              0.11351         *
 * O         8     -0.18639              0.00000              0.11351         *
 * O         9      0.18639              0.00000             -0.11351         *
 * O        10     -0.18639              0.00000             -0.11351         *
 * O        11      0.18639              0.00000              0.11351         *
 * O        12     -0.18639              0.00000              0.11351         *
 * O        13      0.00000              0.00000             -0.25513         *
 * O        14      0.00000              0.00000              0.25513         *
 * O        15      0.00000              0.00000              0.25513         *
 * O        16      0.00000              0.00000             -0.25513         *
 * O        17      0.00000              0.00000             -0.25513         *
 * O        18      0.00000              0.00000              0.25513         *
 * O        19      0.00000              0.00000              0.25513         *
 * O        20      0.00000              0.00000             -0.25513         *
 * O        21      0.00000              0.00000             -0.20366         *
 * O        22      0.00000              0.00000              0.20366         *
 * O        23      0.00000              0.00000              0.20366         *
 * O        24      0.00000              0.00000             -0.20366         *
 * O        25      0.00000              0.00000             -0.20366         *
 * O        26      0.00000              0.00000              0.20366         *
 * O        27      0.00000              0.00000              0.20366         *
 * O        28      0.00000              0.00000             -0.20366         *
 * Ca        1      0.02908 (mixed)      0.00000 (mixed)      0.00000 (mixed) *
 * Ca        2     -0.02908 (mixed)      0.00000 (mixed)      0.00000 (mixed) *
 * Ca        3      0.02908 (mixed)      0.00000 (mixed)      0.00000 (mixed) *
 * Ca        4     -0.02908 (mixed)      0.00000 (mixed)      0.00000 (mixed) *
 * Ca        5      0.03311 (mixed)      0.00000 (mixed)     -0.06310 (mixed) *
 * Ca        6     -0.03311 (mixed)     -0.00000 (mixed)     -0.06310 (mixed) *
 * Ca        7      0.03311 (mixed)      0.00000 (mixed)      0.06310 (mixed) *
 * Ca        8     -0.03311 (mixed)     -0.00000 (mixed)      0.06310 (mixed) *
 * Ca        9      0.03311 (mixed)      0.00000 (mixed)     -0.06310 (mixed) *
 * Ca       10     -0.03311 (mixed)     -0.00000 (mixed)     -0.06310 (mixed) *
 * Ca       11      0.03311 (mixed)      0.00000 (mixed)      0.06310 (mixed) *
 * Ca       12     -0.03311 (mixed)     -0.00000 (mixed)      0.06310 (mixed) *
 * Ti        1     -0.16618              0.00000             -0.07175         *
 * Ti        2      0.16618              0.00000             -0.07175         *
 * Ti        3     -0.16618              0.00000              0.07175         *
 * Ti        4      0.16618              0.00000              0.07175         *
 * Ti        5     -0.16618              0.00000             -0.07175         *
 * Ti        6      0.16618              0.00000             -0.07175         *
 * Ti        7     -0.16618              0.00000              0.07175         *
 * Ti        8      0.16618              0.00000              0.07175         *
 * Sr        1      0.02908 (mixed)      0.00000 (mixed)      0.00000 (mixed) *
 * Sr        2     -0.02908 (mixed)      0.00000 (mixed)      0.00000 (mixed) *
 * Sr        3      0.02908 (mixed)      0.00000 (mixed)      0.00000 (mixed) *
 * Sr        4     -0.02908 (mixed)      0.00000 (mixed)      0.00000 (mixed) *
 * Sr        5      0.03311 (mixed)      0.00000 (mixed)     -0.06310 (mixed) *
 * Sr        6     -0.03311 (mixed)     -0.00000 (mixed)     -0.06310 (mixed) *
 * Sr        7      0.03311 (mixed)      0.00000 (mixed)      0.06310 (mixed) *
 * Sr        8     -0.03311 (mixed)     -0.00000 (mixed)      0.06310 (mixed) *
 * Sr        9      0.03311 (mixed)      0.00000 (mixed)     -0.06310 (mixed) *
 * Sr       10     -0.03311 (mixed)     -0.00000 (mixed)     -0.06310 (mixed) *
 * Sr       11      0.03311 (mixed)      0.00000 (mixed)      0.06310 (mixed) *
 * Sr       12     -0.03311 (mixed)     -0.00000 (mixed)      0.06310 (mixed) *
 *                                                                            *
 ******************************************************************************

 ***************** Stress Tensor *****************
 *                                               *
 *          Cartesian components (GPa)           *
 * --------------------------------------------- *
 *             x             y             z     *
 *                                               *
 *  x     -1.783083      0.000000      0.000000  *
 *  y      0.000000     -2.048931      0.000000  *
 *  z      0.000000      0.000000     -2.588109  *
 *                                               *
 *  Pressure:    2.1400                          *
 *                                               *
 *************************************************
  
 +------------+-------------+-------------+-----------------+ <-- min BFGS
 |    Step    |   lambda    |   F.delta   |    enthalpy     | <-- min BFGS
 +------------+-------------+-------------+-----------------+ <-- min BFGS
 |  previous  |    0.000000 |    0.051294 |   -36506.450741 | <-- min BFGS
 | trial step |    0.848985 |    0.012595 |   -36507.179172 | <-- min BFGS
 +------------+-------------+-------------+-----------------+ <-- min BFGS
  
 BFGS: finished iteration     2 with enthalpy= -3.65071792E+004 eV
  
 +-----------+-----------------+-----------------+------------+-----+ <-- BFGS
 | Parameter |      value      |    tolerance    |    units   | OK? | <-- BFGS
 +-----------+-----------------+-----------------+------------+-----+ <-- BFGS
 |  dE/ion   |   1.214050E-002 |   2.000000E-005 |         eV | No  | <-- BFGS
 |  |F|max   |   2.551275E-001 |   1.000000E-004 |       eV/A | No  | <-- BFGS
 |  |dR|max  |   3.968237E-003 |   1.000000E-003 |          A | No  | <-- BFGS
 |   Smax    |   2.588109E+000 |   1.000000E-002 |        GPa | No  | <-- BFGS
 +-----------+-----------------+-----------------+------------+-----+ <-- BFGS
  

================================================================================
 Starting BFGS iteration          3 ...
================================================================================
  
 +------------+-------------+-------------+-----------------+ <-- min BFGS
 |    Step    |   lambda    |   F.delta   |    enthalpy     | <-- min BFGS
 +------------+-------------+-------------+-----------------+ <-- min BFGS
 |  previous  |    0.000000 |    0.003687 |   -36507.179172 | <-- min BFGS
 +------------+-------------+-------------+-----------------+ <-- min BFGS
  

--------------------------------------------------------------------------------
 BFGS: starting iteration         3 with trial guess (lambda=  1.000000)
--------------------------------------------------------------------------------
 
+---------------- MEMORY AND SCRATCH DISK ESTIMATES PER PROCESS --------------+
|                                                     Memory          Disk    |
| Model and support data                              612.7 MB         0.0 MB |
| Electronic energy minimisation requirements         726.0 MB         0.0 MB |
| Geometry minimisation requirements                  843.1 MB         0.0 MB |
|                                               ----------------------------- |
| Approx. total storage required per process         2181.8 MB         0.0 MB |
|                                                                             |
| Requirements will fluctuate during execution and may exceed these estimates |
+-----------------------------------------------------------------------------+
 

                           -------------------------------
                                      Unit Cell
                           -------------------------------
        Real Lattice(A)              Reciprocal Lattice(1/A)
   5.5073248   0.0000000   0.0000000        1.1408779   0.0000000   0.0000000
   0.0000000   5.4145817   0.0000000        0.0000000   1.1604193   0.0000000
   0.0000000   0.0000000  19.4700279        0.0000000   0.0000000   0.3227106

                       Lattice parameters(A)       Cell Angles
                    a =    5.507325          alpha =   90.000000
                    b =    5.414582          beta  =   90.000000
                    c =   19.470028          gamma =   90.000000

                Current cell volume =  580.593504 A**3

                           -------------------------------
                                     Cell Contents
                           -------------------------------

            xxxxxxxxxxxxxxxxxxxxxxxxxxxxxxxxxxxxxxxxxxxxxxxxxxxxxxxxxxxx
            x  Element    Atom        Fractional coordinates of atoms  x
            x            Number           u          v          w      x
            x----------------------------------------------------------x
            x  O            1         0.175420   0.250000   0.000000   x
            x  O            2         0.824580   0.750000   0.000000   x
            x  O            3         0.675420   0.250000   0.500000   x
            x  O            4         0.324580   0.750000   0.500000   x
            x  O            5         0.306840   0.250000   0.803127   x
            x  O            6         0.693160   0.750000   0.803127   x
            x  O            7         0.306840   0.250000   0.196873   x
            x  O            8         0.693160   0.750000   0.196873   x
            x  O            9         0.806840   0.250000   0.303127   x
            x  O           10         0.193160   0.750000   0.303127   x
            x  O           11         0.806840   0.250000   0.696873   x
            x  O           12         0.193160   0.750000   0.696873   x
            x  O           13        -0.000000   0.000000   0.417153   x
            x  O           14        -0.000000   0.500000   0.582847   x
            x  O           15        -0.000000   0.000000   0.582847   x
            x  O           16        -0.000000   0.500000   0.417153   x
            x  O           17         0.500000   0.000000   0.917153   x
            x  O           18         0.500000   0.500000   0.082847   x
            x  O           19         0.500000   0.000000   0.082847   x
            x  O           20         0.500000   0.500000   0.917153   x
            x  O           21        -0.000000   0.000000   0.112276   x
            x  O           22        -0.000000   0.500000   0.887724   x
            x  O           23        -0.000000   0.000000   0.887724   x
            x  O           24        -0.000000   0.500000   0.112276   x
            x  O           25         0.500000   0.000000   0.612276   x
            x  O           26         0.500000   0.500000   0.387724   x
            x  O           27         0.500000   0.000000   0.387724   x
            x  O           28         0.500000   0.500000   0.612276   x
            x  Ca           1         0.744038   0.250000   0.000000   x
            x  Ca           2         0.255962   0.750000   0.000000   x
            x  Ca           3         0.244038   0.250000   0.500000   x
            x  Ca           4         0.755962   0.750000   0.500000   x
            x  Ca           5         0.237261   0.250000   0.686119   x
            x  Ca           6         0.762739   0.750000   0.686119   x
            x  Ca           7         0.237261   0.250000   0.313881   x
            x  Ca           8         0.762739   0.750000   0.313881   x
            x  Ca           9         0.737261   0.250000   0.186119   x
            x  Ca          10         0.262739   0.750000   0.186119   x
            x  Ca          11         0.737261   0.250000   0.813881   x
            x  Ca          12         0.262739   0.750000   0.813881   x
            x  Ti           1         0.247712   0.250000   0.901234   x
            x  Ti           2         0.752288   0.750000   0.901234   x
            x  Ti           3         0.247712   0.250000   0.098766   x
            x  Ti           4         0.752288   0.750000   0.098766   x
            x  Ti           5         0.747712   0.250000   0.401234   x
            x  Ti           6         0.252288   0.750000   0.401234   x
            x  Ti           7         0.747712   0.250000   0.598766   x
            x  Ti           8         0.252288   0.750000   0.598766   x
            x  Sr           1         0.744038   0.250000   0.000000   x
            x  Sr           2         0.255962   0.750000   0.000000   x
            x  Sr           3         0.244038   0.250000   0.500000   x
            x  Sr           4         0.755962   0.750000   0.500000   x
            x  Sr           5         0.237261   0.250000   0.686119   x
            x  Sr           6         0.762739   0.750000   0.686119   x
            x  Sr           7         0.237261   0.250000   0.313881   x
            x  Sr           8         0.762739   0.750000   0.313881   x
            x  Sr           9         0.737261   0.250000   0.186119   x
            x  Sr          10         0.262739   0.750000   0.186119   x
            x  Sr          11         0.737261   0.250000   0.813881   x
            x  Sr          12         0.262739   0.750000   0.813881   x
            xxxxxxxxxxxxxxxxxxxxxxxxxxxxxxxxxxxxxxxxxxxxxxxxxxxxxxxxxxxx

  
        xxxxxxxxxxxxxxxxxxxxxxxxxxxxxxxxxxxxxxxxxxxxxxxxxxxxxxxxxxxxxxxxxxxx
        x  Mixture   Fractional coordinates of atoms  Components  Weights  x
        x   atoms       u          v          w                            x
        x------------------------------------------------------------------x
        x    1        0.744038   0.250000   0.000000   Ca        0.716600  x
        x                                              Sr        0.283400  x
        x    2        0.255962   0.750000   0.000000   Ca        0.716600  x
        x                                              Sr        0.283400  x
        x    3        0.244038   0.250000   0.500000   Ca        0.716600  x
        x                                              Sr        0.283400  x
        x    4        0.755962   0.750000   0.500000   Ca        0.716600  x
        x                                              Sr        0.283400  x
        x    5        0.237261   0.250000   0.686119   Ca        0.716600  x
        x                                              Sr        0.283400  x
        x    6        0.762739   0.750000   0.686119   Ca        0.716600  x
        x                                              Sr        0.283400  x
        x    7        0.237261   0.250000   0.313881   Ca        0.716600  x
        x                                              Sr        0.283400  x
        x    8        0.762739   0.750000   0.313881   Ca        0.716600  x
        x                                              Sr        0.283400  x
        x    9        0.737261   0.250000   0.186119   Ca        0.716600  x
        x                                              Sr        0.283400  x
        x   10        0.262739   0.750000   0.186119   Ca        0.716600  x
        x                                              Sr        0.283400  x
        x   11        0.737261   0.250000   0.813881   Ca        0.716600  x
        x                                              Sr        0.283400  x
[...]
  Ca       8     1.53   4.21   0.51   0.00   6.25     3.75
  Ca       9     1.53   4.21   0.51   0.00   6.25     3.75
  Ca      10     1.53   4.21   0.51   0.00   6.25     3.75
  Ca      11     1.53   4.21   0.51   0.00   6.25     3.75
  Ca      12     1.53   4.21   0.51   0.00   6.25     3.75
  Ti       1     2.43   6.86   2.14   0.00  11.43     0.57
  Ti       2     2.43   6.86   2.14   0.00  11.43     0.57
  Ti       3     2.43   6.86   2.14   0.00  11.43     0.57
  Ti       4     2.43   6.86   2.14   0.00  11.43     0.57
  Ti       5     2.43   6.86   2.14   0.00  11.43     0.57
  Ti       6     2.43   6.86   2.14   0.00  11.43     0.57
  Ti       7     2.43   6.86   2.14   0.00  11.43     0.57
  Ti       8     2.43   6.86   2.14   0.00  11.43     0.57
  Sr       1     0.69   1.65   0.00   0.00   2.34     7.66
  Sr       2     0.69   1.65   0.00   0.00   2.34     7.66
  Sr       3     0.69   1.65   0.00   0.00   2.34     7.66
  Sr       4     0.69   1.65   0.00   0.00   2.34     7.66
  Sr       5     0.58   2.00   0.00   0.00   2.58     7.42
  Sr       6     0.58   2.00   0.00   0.00   2.58     7.42
  Sr       7     0.58   2.00   0.00   0.00   2.58     7.42
  Sr       8     0.58   2.00   0.00   0.00   2.58     7.42
  Sr       9     0.58   2.00   0.00   0.00   2.58     7.42
  Sr      10     0.58   2.00   0.00   0.00   2.58     7.42
  Sr      11     0.58   2.00   0.00   0.00   2.58     7.42
  Sr      12     0.58   2.00   0.00   0.00   2.58     7.42
==============================================================

            Bond              Population      Length (A)
============================================================
         O 24 -- Ti 4              0.56        1.93367
         O 21 -- Ti 4              0.56        1.93367
         O 27 -- Ti 6              0.56        1.93367
         O 26 -- Ti 6              0.56        1.93367
         O 28 -- Ti 8              0.56        1.93367
         O 25 -- Ti 8              0.56        1.93367
         O 24 -- Ti 3              0.56        1.93367
         O 21 -- Ti 3              0.56        1.93367
         O 28 -- Ti 7              0.56        1.93367
         O 27 -- Ti 5              0.56        1.93367
         O 26 -- Ti 5              0.56        1.93367
         O 25 -- Ti 7              0.56        1.93367
         O 23 -- Ti 2              0.56        1.93367
         O 22 -- Ti 2              0.56        1.93367
         O 23 -- Ti 1              0.56        1.93367
         O 22 -- Ti 1              0.56        1.93367
         O 12 -- Ti 8              0.58        1.93496
         O 11 -- Ti 7              0.58        1.93496
         O 6  -- Ti 2              0.58        1.93496
         O 5  -- Ti 1              0.58        1.93496
         O 7  -- Ti 3              0.58        1.93496
         O 8  -- Ti 4              0.58        1.93496
         O 9  -- Ti 5              0.58        1.93496
         O 10 -- Ti 6              0.58        1.93496
         O 20 -- Ti 1              0.52        1.95755
         O 19 -- Ti 3              0.52        1.95755
         O 18 -- Ti 3              0.52        1.95755
         O 17 -- Ti 1              0.52        1.95755
         O 16 -- Ti 6              0.52        1.95755
         O 16 -- Ti 5              0.52        1.95755
         O 13 -- Ti 6              0.52        1.95755
         O 13 -- Ti 5              0.52        1.95755
         O 20 -- Ti 2              0.52        1.95755
         O 19 -- Ti 4              0.52        1.95755
         O 18 -- Ti 4              0.52        1.95755
         O 17 -- Ti 2              0.52        1.95755
         O 15 -- Ti 8              0.52        1.95755
         O 15 -- Ti 7              0.52        1.95755
         O 14 -- Ti 8              0.52        1.95755
         O 14 -- Ti 7              0.52        1.95755
         O 3  -- Ti 7              0.58        1.96869
         O 2  -- Ti 2              0.58        1.96869
         O 4  -- Ti 8              0.58        1.96869
         O 1  -- Ti 1              0.58        1.96869
         O 3  -- Ti 5              0.58        1.96869
         O 4  -- Ti 6              0.58        1.96869
         O 2  -- Ti 4              0.58        1.96869
         O 1  -- Ti 3              0.58        1.96869
         O 10 -- Sr 10             0.10        2.31428
         O 10 -- Ca 10             0.22        2.31428
         O 9  -- Sr 9              0.10        2.31428
         O 9  -- Ca 9              0.22        2.31428
         O 8  -- Sr 8              0.10        2.31428
         O 8  -- Ca 8              0.22        2.31428
         O 7  -- Sr 7              0.10        2.31428
         O 7  -- Ca 7              0.22        2.31428
         O 6  -- Sr 6              0.10        2.31428
         O 6  -- Ca 6              0.22        2.31428
         O 5  -- Sr 5              0.10        2.31428
         O 5  -- Ca 5              0.22        2.31428
         O 12 -- Sr 12             0.10        2.31428
         O 12 -- Ca 12             0.22        2.31428
         O 11 -- Sr 11             0.10        2.31428
         O 11 -- Ca 11             0.22        2.31428
         O 12 -- Sr 6              0.56        2.38302
         O 12 -- Ca 6             -0.32        2.38302
         O 11 -- Sr 5              0.56        2.38302
         O 11 -- Ca 5             -0.32        2.38302
         O 10 -- Sr 8              0.56        2.38302
         O 10 -- Ca 8             -0.32        2.38302
         O 5  -- Sr 11             0.56        2.38302
         O 5  -- Ca 11            -0.32        2.38302
         O 9  -- Sr 7              0.56        2.38302
         O 9  -- Ca 7             -0.32        2.38302
         O 6  -- Sr 12             0.56        2.38302
         O 6  -- Ca 12            -0.32        2.38302
         O 8  -- Sr 10             0.56        2.38302
         O 8  -- Ca 10            -0.32        2.38302
         O 7  -- Sr 9              0.56        2.38302
         O 7  -- Ca 9             -0.32        2.38302
         O 4  -- Sr 4              0.05        2.42085
         O 4  -- Ca 4             -0.09        2.42085
         O 1  -- Sr 1              0.05        2.42085
         O 1  -- Ca 1             -0.09        2.42085
         O 2  -- Sr 2              0.05        2.42085
         O 2  -- Ca 2             -0.09        2.42085
         O 3  -- Sr 3              0.05        2.42085
         O 3  -- Ca 3             -0.09        2.42085
         O 23 -- Sr 12            -0.28        2.47097
         O 23 -- Ca 12             0.29        2.47097
         O 22 -- Sr 12            -0.28        2.47097
         O 22 -- Ca 12             0.29        2.47097
         O 23 -- Sr 11            -0.28        2.47097
         O 23 -- Ca 11             0.29        2.47097
         O 22 -- Sr 11            -0.28        2.47097
         O 22 -- Ca 11             0.29        2.47097
         O 28 -- Sr 5             -0.28        2.47097
         O 28 -- Ca 5              0.29        2.47097
         O 25 -- Sr 5             -0.28        2.47097
         O 25 -- Ca 5              0.29        2.47097
         O 28 -- Sr 6             -0.28        2.47097
         O 28 -- Ca 6              0.29        2.47097
         O 27 -- Sr 7             -0.28        2.47097
         O 27 -- Ca 7              0.29        2.47097
         O 26 -- Sr 7             -0.28        2.47097
         O 26 -- Ca 7              0.29        2.47097
         O 25 -- Sr 6             -0.28        2.47097
         O 25 -- Ca 6              0.29        2.47097
         O 27 -- Sr 8             -0.28        2.47097
         O 27 -- Ca 8              0.29        2.47097
         O 26 -- Sr 8             -0.28        2.47097
         O 26 -- Ca 8              0.29        2.47097
         O 24 -- Sr 10            -0.28        2.47097
         O 24 -- Ca 10             0.29        2.47097
         O 21 -- Sr 10            -0.28        2.47097
         O 21 -- Ca 10             0.29        2.47097
         O 24 -- Sr 9             -0.28        2.47097
         O 24 -- Ca 9              0.29        2.47097
         O 21 -- Sr 9             -0.28        2.47097
         O 21 -- Ca 9              0.29        2.47097
         O 20 -- Sr 2             -0.13        2.54810
         O 20 -- Ca 2              0.15        2.54810
         O 17 -- Sr 2             -0.13        2.54810
         O 17 -- Ca 2              0.15        2.54810
         O 15 -- Sr 3             -0.13        2.54810
         O 15 -- Ca 3              0.15        2.54810
         O 14 -- Sr 3             -0.13        2.54810
         O 14 -- Ca 3              0.15        2.54810
         O 20 -- Sr 1             -0.13        2.54810
         O 20 -- Ca 1              0.15        2.54810
         O 17 -- Sr 1             -0.13        2.54810
         O 17 -- Ca 1              0.15        2.54810
         O 15 -- Sr 4             -0.13        2.54810
         O 15 -- Ca 4              0.15        2.54810
         O 14 -- Sr 4             -0.13        2.54810
         O 14 -- Ca 4              0.15        2.54810
         O 19 -- Sr 2             -0.13        2.54810
         O 19 -- Ca 2              0.15        2.54810
         O 18 -- Sr 2             -0.13        2.54810
         O 18 -- Ca 2              0.15        2.54810
         O 19 -- Sr 1             -0.13        2.54810
         O 19 -- Ca 1              0.15        2.54810
         O 18 -- Sr 1             -0.13        2.54810
         O 18 -- Ca 1              0.15        2.54810
         O 16 -- Sr 3             -0.13        2.54810
         O 16 -- Ca 3              0.15        2.54810
         O 13 -- Sr 3             -0.13        2.54810
         O 13 -- Ca 3              0.15        2.54810
         O 16 -- Sr 4             -0.13        2.54810
         O 16 -- Ca 4              0.15        2.54810
         O 13 -- Sr 4             -0.13        2.54810
         O 13 -- Ca 4              0.15        2.54810
         O 16 -- Sr 8              0.03        2.69970
         O 16 -- Sr 7              0.03        2.69970
         O 16 -- Ca 8             -0.06        2.69970
         O 16 -- Ca 7             -0.06        2.69970
         O 13 -- Sr 8              0.03        2.69970
         O 13 -- Sr 7              0.03        2.69970
         O 13 -- Ca 8             -0.06        2.69970
         O 13 -- Ca 7             -0.06        2.69970
         O 19 -- Sr 10             0.03        2.69970
         O 19 -- Sr 9              0.03        2.69970
         O 19 -- Ca 10            -0.06        2.69970
         O 19 -- Ca 9             -0.06        2.69970
         O 18 -- Sr 10             0.03        2.69970
         O 18 -- Sr 9              0.03        2.69970
         O 18 -- Ca 10            -0.06        2.69970
         O 18 -- Ca 9             -0.06        2.69970
         O 15 -- Sr 6              0.03        2.69970
         O 15 -- Sr 5              0.03        2.69970
         O 15 -- Ca 6             -0.06        2.69970
         O 15 -- Ca 5             -0.06        2.69970
         O 14 -- Sr 6              0.03        2.69970
         O 14 -- Sr 5              0.03        2.69970
         O 14 -- Ca 6             -0.06        2.69970
         O 14 -- Ca 5             -0.06        2.69970
         O 20 -- Sr 12             0.03        2.69970
         O 20 -- Sr 11             0.03        2.69970
         O 20 -- Ca 12            -0.06        2.69970
         O 20 -- Ca 11            -0.06        2.69970
         O 17 -- Sr 12             0.03        2.69970
         O 17 -- Sr 11             0.03        2.69970
         O 17 -- Ca 12            -0.06        2.69970
         O 17 -- Ca 11            -0.06        2.69970
         O 26 -- O 27             -0.08        2.71315
         O 25 -- O 28             -0.08        2.71315
         O 22 -- O 23             -0.08        2.71315
         O 21 -- O 24             -0.08        2.71315
         O 18 -- O 19             -0.08        2.71315
         O 17 -- O 20             -0.08        2.71315
         O 14 -- O 15             -0.08        2.71315
         O 13 -- O 16             -0.08        2.71315
         O 12 -- Sr 5              0.75        2.73279
         O 12 -- Ca 5             -0.50        2.73279
         O 11 -- Sr 6              0.75        2.73279
         O 11 -- Ca 6             -0.50        2.73279
         O 6  -- Sr 11             0.75        2.73279
         O 6  -- Ca 11            -0.50        2.73279
         O 5  -- Sr 12             0.75        2.73279
         O 5  -- Ca 12            -0.50        2.73279
         O 10 -- Sr 7              0.75        2.73279
         O 10 -- Ca 7             -0.50        2.73279
         O 9  -- Sr 8              0.75        2.73279
         O 9  -- Ca 8             -0.50        2.73279
         O 8  -- Sr 9              0.75        2.73279
         O 8  -- Ca 9             -0.50        2.73279
         O 7  -- Sr 10             0.75        2.73279
         O 7  -- Ca 10            -0.50        2.73279
         O 2  -- O 24             -0.04        2.73685
         O 2  -- O 21             -0.04        2.73685
         O 1  -- O 24             -0.04        2.73685
         O 1  -- O 21             -0.04        2.73685
         O 4  -- O 27             -0.04        2.73685
         O 4  -- O 26             -0.04        2.73685
         O 3  -- O 27             -0.04        2.73685
         O 3  -- O 26             -0.04        2.73685
         O 4  -- O 28             -0.04        2.73685
         O 4  -- O 25             -0.04        2.73685
         O 3  -- O 28             -0.04        2.73685
         O 3  -- O 25             -0.04        2.73685
         O 2  -- O 23             -0.04        2.73685
         O 2  -- O 22             -0.04        2.73685
         O 1  -- O 23             -0.04        2.73685
         O 1  -- O 22             -0.04        2.73685
         O 3  -- Sr 4              0.19        2.73832
         O 3  -- Ca 4             -0.23        2.73832
         O 4  -- Sr 3              0.19        2.73832
         O 4  -- Ca 3             -0.23        2.73832
         O 2  -- Sr 1              0.19        2.73832
         O 2  -- Ca 1             -0.23        2.73832
         O 1  -- Sr 2              0.19        2.73832
         O 1  -- Ca 2             -0.23        2.73832
         O 6  -- O 23             -0.04        2.75014
         O 6  -- O 22             -0.04        2.75014
         O 5  -- O 23             -0.04        2.75014
         O 5  -- O 22             -0.04        2.75014
         O 12 -- O 28             -0.04        2.75014
         O 12 -- O 25             -0.04        2.75014
         O 11 -- O 28             -0.04        2.75014
         O 11 -- O 25             -0.04        2.75014
         O 10 -- O 27             -0.04        2.75014
         O 10 -- O 26             -0.04        2.75014
         O 9  -- O 27             -0.04        2.75014
         O 9  -- O 26             -0.04        2.75014
         O 8  -- O 24             -0.04        2.75014
         O 8  -- O 21             -0.04        2.75014
         O 7  -- O 24             -0.04        2.75014
         O 7  -- O 21             -0.04        2.75014
         O 3  -- O 15             -0.03        2.76282
         O 3  -- O 14             -0.03        2.76282
         O 2  -- O 20             -0.03        2.76282
         O 2  -- O 17             -0.03        2.76282
         O 1  -- O 20             -0.03        2.76282
         O 1  -- O 17             -0.03        2.76282
         O 4  -- O 15             -0.03        2.76282
         O 4  -- O 14             -0.03        2.76282
         O 2  -- O 19             -0.03        2.76282
         O 2  -- O 18             -0.03        2.76282
         O 1  -- O 19             -0.03        2.76282
         O 1  -- O 18             -0.03        2.76282
         O 3  -- O 16             -0.03        2.76282
         O 3  -- O 13             -0.03        2.76282
         O 4  -- O 16             -0.03        2.76282
         O 4  -- O 13             -0.03        2.76282
         O 12 -- O 15             -0.03        2.77356
         O 12 -- O 14             -0.03        2.77356
         O 10 -- O 16             -0.03        2.77356
         O 10 -- O 13             -0.03        2.77356
         O 5  -- O 20             -0.03        2.77356
         O 5  -- O 17             -0.03        2.77356
         O 11 -- O 15             -0.03        2.77356
         O 11 -- O 14             -0.03        2.77356
         O 9  -- O 16             -0.03        2.77356
         O 9  -- O 13             -0.03        2.77356
         O 6  -- O 20             -0.03        2.77356
         O 6  -- O 17             -0.03        2.77356
         O 7  -- O 19             -0.03        2.77356
         O 7  -- O 18             -0.03        2.77356
         O 8  -- O 19             -0.03        2.77356
         O 8  -- O 18             -0.03        2.77356
         O 16 -- O 26             -0.06        2.78878
         O 13 -- O 27             -0.06        2.78878
         O 19 -- O 21             -0.06        2.78878
         O 18 -- O 24             -0.06        2.78878
         O 15 -- O 25             -0.06        2.78878
         O 14 -- O 28             -0.06        2.78878
         O 20 -- O 22             -0.06        2.78878
         O 17 -- O 23             -0.06        2.78878
         O 24 -- Sr 1             -0.02        2.89605
         O 24 -- Ca 1             -0.05        2.89605
         O 21 -- Sr 1             -0.02        2.89605
         O 21 -- Ca 1             -0.05        2.89605
         O 24 -- Sr 2             -0.02        2.89605
         O 24 -- Ca 2             -0.05        2.89605
         O 21 -- Sr 2             -0.02        2.89605
         O 21 -- Ca 2             -0.05        2.89605
         O 28 -- Sr 4             -0.02        2.89605
         O 28 -- Sr 3             -0.02        2.89605
         O 28 -- Ca 4             -0.05        2.89605
         O 28 -- Ca 3             -0.05        2.89605
         O 27 -- Sr 4             -0.02        2.89605
         O 27 -- Sr 3             -0.02        2.89605
         O 27 -- Ca 4             -0.05        2.89605
         O 27 -- Ca 3             -0.05        2.89605
         O 26 -- Sr 4             -0.02        2.89605
         O 26 -- Sr 3             -0.02        2.89605
         O 26 -- Ca 4             -0.05        2.89605
         O 26 -- Ca 3             -0.05        2.89605
         O 25 -- Sr 4             -0.02        2.89605
         O 25 -- Sr 3             -0.02        2.89605
         O 25 -- Ca 4             -0.05        2.89605
         O 25 -- Ca 3             -0.05        2.89605
         O 23 -- Sr 2             -0.02        2.89605
         O 23 -- Sr 1             -0.02        2.89605
         O 23 -- Ca 2             -0.05        2.89605
         O 23 -- Ca 1             -0.05        2.89605
         O 22 -- Sr 2             -0.02        2.89605
         O 22 -- Sr 1             -0.02        2.89605
         O 22 -- Ca 2             -0.05        2.89605
         O 22 -- Ca 1             -0.05        2.89605
============================================================


Writing analysis data to Ca2.15Sr0.85Ti2O7_Amam.castep_bin

Writing model to Ca2.15Sr0.85Ti2O7_Amam.check
 
 A BibTeX formatted list of references used in this run has been written to 
 Ca2.15Sr0.85Ti2O7_Amam.bib
 
Initialisation time =     19.69 s
Calculation time    =  93991.05 s
Finalisation time   =     11.47 s
Total time          =  94022.20 s
Peak Memory Use     = 2180972 kB
  
Overall parallel efficiency rating: Mediocre (54%)                              
  
Data was distributed by:-
G-vector (2-way); efficiency rating: Mediocre (54%)                             
k-point (9-way); efficiency rating: Ideal (100%)                                
